Automatically generated mesh
     121
Reciprocal lattice
    0.00000000000000    0.00000000000000    0.00000000000000             1
    0.25000000000000   -0.00000000000000    0.00000000000000             2
    0.50000000000000   -0.00000000000000    0.00000000000000             4
    0.00000000000000    0.16666666666666    0.00000000000000             2
    0.25000000000000    0.16666666666666    0.00000000000000             2
    0.50000000000000    0.16666666666666    0.00000000000000             2
   -0.25000000000000    0.16666666666666   -0.00000000000000             2
   -0.00000000000000    0.33333333333334   -0.00000000000000             2
    0.25000000000000    0.33333333333334   -0.00000000000000             2
    0.50000000000000    0.33333333333334   -0.00000000000000             2
   -0.25000000000000    0.33333333333334    0.00000000000000             2
    0.25000000000000    0.50000000000000   -0.00000000000000             2
    0.50000000000000    0.50000000000000   -0.00000000000000             1
    0.00000000000000    0.00000000000000    0.10000000000000             2
    0.25000000000000   -0.00000000000000    0.10000000000000             2
    0.50000000000000    0.00000000000000    0.10000000000000             2
   -0.25000000000000    0.00000000000000    0.10000000000000             2
   -0.00000000000000    0.16666666666666    0.10000000000000             2
    0.25000000000000    0.16666666666666    0.10000000000000             2
    0.50000000000000    0.16666666666666    0.10000000000000             2
   -0.25000000000000    0.16666666666666    0.10000000000000             2
    0.00000000000000    0.33333333333334    0.10000000000000             2
    0.25000000000000    0.33333333333334    0.10000000000000             2
    0.50000000000000    0.33333333333334    0.10000000000000             2
   -0.25000000000000    0.33333333333334    0.10000000000000             2
   -0.00000000000000    0.50000000000000    0.10000000000000             2
    0.25000000000000    0.50000000000000    0.10000000000000             2
    0.50000000000000    0.50000000000000    0.10000000000000             2
   -0.25000000000000    0.50000000000000    0.10000000000000             2
    0.00000000000000   -0.33333333333334    0.10000000000000             2
    0.25000000000000   -0.33333333333334    0.10000000000000             2
    0.50000000000000   -0.33333333333334    0.10000000000000             2
   -0.25000000000000   -0.33333333333334    0.10000000000000             2
   -0.00000000000000   -0.16666666666666    0.10000000000000             2
    0.25000000000000   -0.16666666666666    0.10000000000000             2
    0.50000000000000   -0.16666666666666    0.10000000000000             2
   -0.25000000000000   -0.16666666666666    0.10000000000000             2
    0.00000000000000    0.00000000000000    0.20000000000000             2
    0.25000000000000    0.00000000000000    0.20000000000000             2
    0.50000000000000   -0.00000000000000    0.20000000000000             2
   -0.25000000000000    0.00000000000000    0.20000000000000             2
    0.00000000000000    0.16666666666666    0.20000000000000             2
    0.25000000000000    0.16666666666666    0.20000000000000             2
    0.50000000000000    0.16666666666666    0.20000000000000             2
   -0.25000000000000    0.16666666666666    0.20000000000000             2
    0.00000000000000    0.33333333333334    0.20000000000000             2
    0.25000000000000    0.33333333333334    0.20000000000000             2
    0.50000000000000    0.33333333333334    0.20000000000000             2
   -0.25000000000000    0.33333333333334    0.20000000000000             2
   -0.00000000000000    0.50000000000000    0.20000000000000             2
    0.25000000000000    0.50000000000000    0.20000000000000             2
    0.50000000000000    0.50000000000000    0.20000000000000             2
   -0.25000000000000    0.50000000000000    0.20000000000000             2
    0.00000000000000   -0.33333333333334    0.20000000000000             2
    0.25000000000000   -0.33333333333334    0.20000000000000             2
    0.50000000000000   -0.33333333333334    0.20000000000000             2
   -0.25000000000000   -0.33333333333334    0.20000000000000             2
   -0.00000000000000   -0.16666666666666    0.20000000000000             2
    0.25000000000000   -0.16666666666666    0.20000000000000             2
    0.50000000000000   -0.16666666666666    0.20000000000000             2
   -0.25000000000000   -0.16666666666666    0.20000000000000             2
    0.00000000000000   -0.00000000000000    0.30000000000000             2
    0.25000000000000    0.00000000000000    0.30000000000000             2
    0.50000000000000    0.00000000000000    0.30000000000000             2
   -0.25000000000000    0.00000000000000    0.30000000000000             2
    0.00000000000000    0.16666666666666    0.30000000000000             2
    0.25000000000000    0.16666666666666    0.30000000000000             2
    0.50000000000000    0.16666666666666    0.30000000000000             2
   -0.25000000000000    0.16666666666666    0.30000000000000             2
   -0.00000000000000    0.33333333333334    0.30000000000000             2
    0.25000000000000    0.33333333333334    0.30000000000000             2
    0.50000000000000    0.33333333333334    0.30000000000000             2
   -0.25000000000000    0.33333333333334    0.30000000000000             2
    0.00000000000000    0.50000000000000    0.30000000000000             2
    0.25000000000000    0.50000000000000    0.30000000000000             2
    0.50000000000000    0.50000000000000    0.30000000000000             2
   -0.25000000000000    0.50000000000000    0.30000000000000             2
    0.00000000000000   -0.33333333333334    0.30000000000000             2
    0.25000000000000   -0.33333333333334    0.30000000000000             2
    0.50000000000000   -0.33333333333334    0.30000000000000             2
   -0.25000000000000   -0.33333333333334    0.30000000000000             2
    0.00000000000000   -0.16666666666666    0.30000000000000             2
    0.25000000000000   -0.16666666666666    0.30000000000000             2
    0.50000000000000   -0.16666666666666    0.30000000000000             2
   -0.25000000000000   -0.16666666666666    0.30000000000000             2
    0.00000000000000    0.00000000000000    0.40000000000000             2
    0.25000000000000    0.00000000000000    0.40000000000000             2
    0.50000000000000   -0.00000000000000    0.40000000000000             2
   -0.25000000000000    0.00000000000000    0.40000000000000             2
   -0.00000000000000    0.16666666666666    0.40000000000000             2
    0.25000000000000    0.16666666666666    0.40000000000000             2
    0.50000000000000    0.16666666666666    0.40000000000000             2
   -0.25000000000000    0.16666666666666    0.40000000000000             2
   -0.00000000000000    0.33333333333334    0.40000000000000             2
    0.25000000000000    0.33333333333334    0.40000000000000             2
    0.50000000000000    0.33333333333334    0.40000000000000             2
   -0.25000000000000    0.33333333333334    0.40000000000000             2
   -0.00000000000000    0.50000000000000    0.40000000000000             2
    0.25000000000000    0.50000000000000    0.40000000000000             2
    0.50000000000000    0.50000000000000    0.40000000000000             2
   -0.25000000000000    0.50000000000000    0.40000000000000             2
    0.00000000000000   -0.33333333333334    0.40000000000000             2
    0.25000000000000   -0.33333333333334    0.40000000000000             2
    0.50000000000000   -0.33333333333334    0.40000000000000             2
   -0.25000000000000   -0.33333333333334    0.40000000000000             2
   -0.00000000000000   -0.16666666666666    0.40000000000000             2
    0.25000000000000   -0.16666666666666    0.40000000000000             2
    0.50000000000000   -0.16666666666666    0.40000000000000             2
   -0.25000000000000   -0.16666666666666    0.40000000000000             2
    0.25000000000000    0.00000000000000    0.50000000000000             2
    0.50000000000000    0.00000000000000    0.50000000000000             1
   -0.00000000000000    0.16666666666666    0.50000000000000             2
    0.25000000000000    0.16666666666666    0.50000000000000             2
    0.50000000000000    0.16666666666666    0.50000000000000             2
   -0.25000000000000    0.16666666666666    0.50000000000000             2
   -0.00000000000000    0.33333333333334    0.50000000000000             2
    0.25000000000000    0.33333333333334    0.50000000000000             2
    0.50000000000000    0.33333333333334    0.50000000000000             2
   -0.25000000000000    0.33333333333334    0.50000000000000             2
   -0.00000000000000    0.50000000000000    0.50000000000000             1
    0.25000000000000    0.50000000000000    0.50000000000000             2
Tetrahedra
       720    0.00069444444444
         2         1         4         5        19
         2         1         2         5        19
         2         1         2        15        19
         2         1         4        18        19
         2         1        14        18        19
         2         1        14        15        19
         2         2         5         6        20
         2         2         3         6        20
         2         2         3        16        20
         2         2         5        19        20
         2         2        15        19        20
         2         2        15        16        20
         2         3         6         7        21
         2         2         3         7        21
         2         2         3        17        21
         2         3         6        20        21
         2         3        16        20        21
         2         3        16        17        21
         2         2         4         7        18
         2         1         2         4        18
         2         1         2        14        18
         2         2         7        18        21
         2         2        17        18        21
         2         2        14        17        18
         2         4         8         9        23
         2         4         5         9        23
         2         4         5        19        23
         2         4         8        22        23
         2         4        18        22        23
         2         4        18        19        23
         2         5         9        10        24
         2         5         6        10        24
         2         5         6        20        24
         2         5         9        23        24
         2         5        19        23        24
         2         5        19        20        24
         2         6        10        11        25
         2         6         7        11        25
         2         6         7        21        25
         2         6        10        24        25
         2         6        20        24        25
         2         6        20        21        25
         2         7         8        11        22
         2         4         7         8        22
         2         4         7        18        22
         2         7        11        22        25
         2         7        21        22        25
         2         7        18        21        22
         2         3         8        12        27
         2         8         9        12        27
         2         8         9        23        27
         2         3         8        26        27
         2         8        22        26        27
         2         8        22        23        27
         2         9        12        13        28
         2         9        10        13        28
         2         9        10        24        28
         2         9        12        27        28
         2         9        23        27        28
         2         9        23        24        28
         2        10        12        13        29
         2        10        11        12        29
         2        10        11        25        29
         2        10        13        28        29
         2        10        24        28        29
         2        10        24        25        29
         2         3        11        12        26
         2         3         8        11        26
         2         8        11        22        26
         2        11        12        26        29
         2        11        25        26        29
         2        11        22        25        26
         2         3         8        11        31
         2         3        11        12        31
         2         3        12        27        31
         2         3         8        30        31
         2         3        26        30        31
         2         3        26        27        31
         2        10        11        12        32
         2        10        12        13        32
         2        12        13        28        32
         2        11        12        31        32
         2        12        27        31        32
         2        12        27        28        32
         2         9        10        13        33
         2         9        12        13        33
         2        12        13        29        33
         2        10        13        32        33
         2        13        28        32        33
         2        13        28        29        33
         2         8         9        12        30
         2         3         8        12        30
         2         3        12        26        30
         2         9        12        30        33
         2        12        29        30        33
         2        12        26        29        30
         2         4         7         8        35
         2         7         8        11        35
         2         8        11        31        35
         2         4         8        34        35
         2         8        30        34        35
         2         8        30        31        35
         2         6         7        11        36
         2         6        10        11        36
         2        10        11        32        36
         2         7        11        35        36
         2        11        31        35        36
         2        11        31        32        36
         2         5         6        10        37
         2         5         9        10        37
         2         9        10        33        37
         2         6        10        36        37
         2        10        32        36        37
         2        10        32        33        37
         2         4         5         9        34
         2         4         8         9        34
         2         8         9        30        34
         2         5         9        34        37
         2         9        33        34        37
         2         9        30        33        34
         2         1         2         4        15
         2         2         4         7        15
         2         4         7        15        35
         2         1         4        14        15
         2         4        14        15        34
         2         4        15        34        35
         2         2         3         7        16
         2         3         6         7        16
         2         6         7        16        36
         2         2         7        15        16
         2         7        15        16        35
         2         7        16        35        36
         2         2         3         6        17
         2         2         5         6        17
         2         5         6        17        37
         2         3         6        16        17
         2         6        16        17        36
         2         6        17        36        37
         2         1         2         5        14
         2         1         4         5        14
         2         4         5        14        34
         2         2         5        14        17
         2         5        14        17        37
         2         5        14        34        37
         2        14        18        19        43
         2        14        15        19        43
         2        14        15        39        43
         2        14        18        42        43
         2        14        38        42        43
         2        14        38        39        43
         2        15        19        20        44
         2        15        16        20        44
         2        15        16        40        44
         2        15        19        43        44
         2        15        39        43        44
         2        15        39        40        44
         2        16        20        21        45
         2        16        17        21        45
         2        16        17        41        45
         2        16        20        44        45
         2        16        40        44        45
         2        16        40        41        45
         2        17        18        21        42
         2        14        17        18        42
         2        14        17        38        42
         2        17        21        42        45
         2        17        41        42        45
         2        17        38        41        42
         2        18        22        23        47
         2        18        19        23        47
         2        18        19        43        47
         2        18        22        46        47
         2        18        42        46        47
         2        18        42        43        47
         2        19        23        24        48
         2        19        20        24        48
         2        19        20        44        48
         2        19        23        47        48
         2        19        43        47        48
         2        19        43        44        48
         2        20        24        25        49
         2        20        21        25        49
         2        20        21        45        49
         2        20        24        48        49
         2        20        44        48        49
         2        20        44        45        49
         2        21        22        25        46
         2        18        21        22        46
         2        18        21        42        46
         2        21        25        46        49
         2        21        45        46        49
         2        21        42        45        46
         2        22        26        27        51
         2        22        23        27        51
         2        22        23        47        51
         2        22        26        50        51
         2        22        46        50        51
         2        22        46        47        51
         2        23        27        28        52
         2        23        24        28        52
         2        23        24        48        52
         2        23        27        51        52
         2        23        47        51        52
         2        23        47        48        52
         2        24        28        29        53
         2        24        25        29        53
         2        24        25        49        53
         2        24        28        52        53
         2        24        48        52        53
         2        24        48        49        53
         2        25        26        29        50
         2        22        25        26        50
         2        22        25        46        50
         2        25        29        50        53
         2        25        49        50        53
         2        25        46        49        50
         2        26        30        31        55
         2        26        27        31        55
         2        26        27        51        55
         2        26        30        54        55
         2        26        50        54        55
         2        26        50        51        55
         2        27        31        32        56
         2        27        28        32        56
         2        27        28        52        56
         2        27        31        55        56
         2        27        51        55        56
         2        27        51        52        56
         2        28        32        33        57
         2        28        29        33        57
         2        28        29        53        57
         2        28        32        56        57
         2        28        52        56        57
         2        28        52        53        57
         2        29        30        33        54
         2        26        29        30        54
         2        26        29        50        54
         2        29        33        54        57
         2        29        53        54        57
         2        29        50        53        54
         2        30        34        35        59
         2        30        31        35        59
         2        30        31        55        59
         2        30        34        58        59
         2        30        54        58        59
         2        30        54        55        59
         2        31        35        36        60
         2        31        32        36        60
         2        31        32        56        60
         2        31        35        59        60
         2        31        55        59        60
         2        31        55        56        60
         2        32        36        37        61
         2        32        33        37        61
         2        32        33        57        61
         2        32        36        60        61
         2        32        56        60        61
         2        32        56        57        61
         2        33        34        37        58
         2        30        33        34        58
         2        30        33        54        58
         2        33        37        58        61
         2        33        57        58        61
         2        33        54        57        58
         2        14        15        34        39
         2        15        34        35        39
         2        34        35        39        59
         2        14        34        38        39
         2        34        38        39        58
         2        34        39        58        59
         2        15        16        35        40
         2        16        35        36        40
         2        35        36        40        60
         2        15        35        39        40
         2        35        39        40        59
         2        35        40        59        60
         2        16        17        36        41
         2        17        36        37        41
         2        36        37        41        61
         2        16        36        40        41
         2        36        40        41        60
         2        36        41        60        61
         2        14        17        37        38
         2        14        34        37        38
         2        34        37        38        58
         2        17        37        38        41
         2        37        38        41        61
         2        37        38        58        61
         2        38        42        43        67
         2        38        39        43        67
         2        38        39        63        67
         2        38        42        66        67
         2        38        62        66        67
         2        38        62        63        67
         2        39        43        44        68
         2        39        40        44        68
         2        39        40        64        68
         2        39        43        67        68
         2        39        63        67        68
         2        39        63        64        68
         2        40        44        45        69
         2        40        41        45        69
         2        40        41        65        69
         2        40        44        68        69
         2        40        64        68        69
         2        40        64        65        69
         2        41        42        45        66
         2        38        41        42        66
         2        38        41        62        66
         2        41        45        66        69
         2        41        65        66        69
         2        41        62        65        66
         2        42        46        47        71
         2        42        43        47        71
         2        42        43        67        71
         2        42        46        70        71
         2        42        66        70        71
         2        42        66        67        71
         2        43        47        48        72
         2        43        44        48        72
         2        43        44        68        72
         2        43        47        71        72
         2        43        67        71        72
         2        43        67        68        72
         2        44        48        49        73
         2        44        45        49        73
         2        44        45        69        73
         2        44        48        72        73
         2        44        68        72        73
         2        44        68        69        73
         2        45        46        49        70
         2        42        45        46        70
         2        42        45        66        70
         2        45        49        70        73
         2        45        69        70        73
         2        45        66        69        70
         2        46        50        51        75
         2        46        47        51        75
         2        46        47        71        75
         2        46        50        74        75
         2        46        70        74        75
         2        46        70        71        75
         2        47        51        52        76
         2        47        48        52        76
         2        47        48        72        76
         2        47        51        75        76
         2        47        71        75        76
         2        47        71        72        76
         2        48        52        53        77
         2        48        49        53        77
         2        48        49        73        77
         2        48        52        76        77
         2        48        72        76        77
         2        48        72        73        77
         2        49        50        53        74
         2        46        49        50        74
         2        46        49        70        74
         2        49        53        74        77
         2        49        73        74        77
         2        49        70        73        74
         2        50        54        55        79
         2        50        51        55        79
         2        50        51        75        79
         2        50        54        78        79
         2        50        74        78        79
         2        50        74        75        79
         2        51        55        56        80
         2        51        52        56        80
         2        51        52        76        80
         2        51        55        79        80
         2        51        75        79        80
         2        51        75        76        80
         2        52        56        57        81
         2        52        53        57        81
         2        52        53        77        81
         2        52        56        80        81
         2        52        76        80        81
         2        52        76        77        81
         2        53        54        57        78
         2        50        53        54        78
         2        50        53        74        78
         2        53        57        78        81
         2        53        77        78        81
         2        53        74        77        78
         2        54        58        59        83
         2        54        55        59        83
         2        54        55        79        83
         2        54        58        82        83
         2        54        78        82        83
         2        54        78        79        83
         2        55        59        60        84
         2        55        56        60        84
         2        55        56        80        84
         2        55        59        83        84
         2        55        79        83        84
         2        55        79        80        84
         2        56        60        61        85
         2        56        57        61        85
         2        56        57        81        85
         2        56        60        84        85
         2        56        80        84        85
         2        56        80        81        85
         2        57        58        61        82
         2        54        57        58        82
         2        54        57        78        82
         2        57        61        82        85
         2        57        81        82        85
         2        57        78        81        82