       N       E                     dE             d eps       ncg     rms          rms(c)
DAV:   1     0.921714948922E+03    0.92171E+03   -0.67469E+04 17424   0.173E+03
DAV:   2    -0.292958238750E+02   -0.95101E+03   -0.92883E+03 21672   0.350E+02
DAV:   3    -0.102779070939E+03   -0.73483E+02   -0.72480E+02 19376   0.105E+02
DAV:   4    -0.104239243536E+03   -0.14602E+01   -0.14501E+01 20352   0.157E+01
DAV:   5    -0.104268349064E+03   -0.29106E-01   -0.29095E-01 19560   0.213E+00
RMM:   6    -0.104269098681E+03   -0.74962E-03   -0.74962E-03 17599   0.359E-01
RMM:   7    -0.104269334928E+03   -0.23625E-03   -0.23654E-03 23967   0.139E-01
RMM:   8    -0.104269341469E+03   -0.65411E-05   -0.12271E-04 22374   0.401E-02
RMM:   9    -0.104269342798E+03   -0.13293E-05   -0.14977E-05 18670   0.103E-02
RMM:  10    -0.104269342820E+03   -0.22341E-07   -0.80345E-07 13121   0.329E-03
   1 F= -.10683841E+03 E0= -.10683841E+03  d E =0.000000E+00
