 vasp.6.3.0 20Jan22 (build Jan 28 2022 00:43:23) complex                        
  
 executed on             LinuxIFC date 2025.07.23  14:02:48
 running   64 mpi-ranks, with    1 threads/rank
 distrk:  each k-point on   64 cores,    1 groups
 distr:  one band on NCORE=   8 cores,    8 groups


--------------------------------------------------------------------------------------------------------


 INCAR:
   ALGO = Fast
   ICHARG = 11
   LORBIT = 11
   NEDOS = 4000
   ENCUT = 600
   ISMEAR = -5
   EDIFF = 1.0E-6
   PREC = Accurate
   NELM = 200
   MAGMOM = 22*0.6
   ISPIN = 1
   LMAXMIX = 4
   LASPH = True
   IVDW = 12
   LWAVE = .FALSE.
   LCHARG = .FALSE.
   LREAL = Auto
   NPAR = 8

 POTCAR:    PAW_PBE Te 08Apr2002                  
 POTCAR:    PAW_PBE H 15Jun2001                   
 POTCAR:    PAW_PBE O 08Apr2002                   
 POTCAR:    PAW_PBE F 08Apr2002                   
 POTCAR:    PAW_PBE Te 08Apr2002                  
   VRHFIN =Te: s2p4                                                                                 
   LEXCH  = PE                                                                                      
   EATOM  =   223.2721 eV,   16.4100 Ry                                                             
                                                                                                    
   TITEL  = PAW_PBE Te 08Apr2002                                                                    
   LULTRA =        F    use ultrasoft PP ?                                                          
   IUNSCR =        1    unscreen: 0-lin 1-nonlin 2-no                                               
   RPACOR =    2.200    partial core radius                                                         
   POMASS =  127.600; ZVAL   =    6.000    mass and valenz                                          
   RCORE  =    2.300    outmost cutoff radius                                                       
   RWIGS  =    2.900; RWIGS  =    1.535    wigner-seitz radius (au A)                               
   ENMAX  =  174.982; ENMIN  =  131.236 eV                                                          
   ICORE  =        3    local potential                                                             
   LCOR   =        T    correct aug charges                                                         
   LPAW   =        T    paw PP                                                                      
   EAUG   =  368.792                                                                                
   DEXC   =    0.000                                                                                
   RMAX   =    2.345    core radius for proj-oper                                                   
   RAUG   =    1.300    factor for augmentation sphere                                              
   RDEP   =    2.397    radius for radial grids                                                     
   RDEPT  =    2.174    core radius for aug-charge                                                  
                                                                                                    
   Atomic configuration                                                                             
   13 entries                                                                                       
     n  l   j            E        occ.                                                              
     1  0  0.50    -31621.2075   2.0000                                                             
     2  0  0.50     -4848.7941   2.0000                                                             
     2  1  1.50     -4352.1960   6.0000                                                             
     3  0  0.50      -964.9612   2.0000                                                             
     3  1  1.50      -803.6179   6.0000                                                             
     3  2  2.50      -559.8710  10.0000                                                             
     4  0  0.50      -164.3522   2.0000                                                             
     4  1  1.50      -114.3756   6.0000                                                             
     4  2  2.50       -41.6483  10.0000                                                             
     5  0  0.50       -15.1072   2.0000                                                             
     5  1  0.50        -5.9526   4.0000                                                             
     5  2  1.50        -5.4423   0.0000                                                             
     4  3  2.50        -5.4423   0.0000                                                             
   Description                                                                                      
     l       E           TYP  RCUT    TYP  RCUT                                                     
     0    -15.1072389     23  2.300                                                                 
     0    -16.4678215     23  2.300                                                                 
     1     -5.9526306     23  2.300                                                                 
     1     -2.4873968     23  2.300                                                                 
     2     -5.4423304     23  2.300                                                                 
     3     -1.3605826     23  2.300                                                                 
  local pseudopotential read in
  partial core-charges read in
  partial kinetic energy density read in
  atomic valenz-charges read in
  non local Contribution for L=           0  read in
    real space projection operators read in
  non local Contribution for L=           0  read in
    real space projection operators read in
  non local Contribution for L=           1  read in
    real space projection operators read in
  non local Contribution for L=           1  read in
    real space projection operators read in
  non local Contribution for L=           2  read in
    real space projection operators read in
    PAW grid and wavefunctions read in
 
   number of l-projection  operators is LMAX  =           5
   number of lm-projection operators is LMMAX =          13
 
 POTCAR:    PAW_PBE H 15Jun2001                   
   VRHFIN =H: ultrasoft test                                                                        
   LEXCH  = PE                                                                                      
   EATOM  =    12.4884 eV,    0.9179 Ry                                                             
                                                                                                    
   TITEL  = PAW_PBE H 15Jun2001                                                                     
   LULTRA =        F    use ultrasoft PP ?                                                          
   IUNSCR =        0    unscreen: 0-lin 1-nonlin 2-no                                               
   RPACOR =    0.000    partial core radius                                                         
   POMASS =    1.000; ZVAL   =    1.000    mass and valenz                                          
   RCORE  =    1.100    outmost cutoff radius                                                       
   RWIGS  =    0.700; RWIGS  =    0.370    wigner-seitz radius (au A)                               
   ENMAX  =  250.000; ENMIN  =  200.000 eV                                                          
   RCLOC  =    0.701    cutoff for local pot                                                        
   LCOR   =        T    correct aug charges                                                         
   LPAW   =        T    paw PP                                                                      
   EAUG   =  400.000                                                                                
   RMAX   =    1.123    core radius for proj-oper                                                   
   RAUG   =    1.200    factor for augmentation sphere                                              
   RDEP   =    1.112    radius for radial grids                                                     
   RDEPT  =    0.926    core radius for aug-charge                                                  
                                                                                                    
   Atomic configuration                                                                             
    2 entries                                                                                       
     n  l   j            E        occ.                                                              
     1  0  0.50        -6.4927   1.0000                                                             
     2  1  0.50        -3.4015   0.0000                                                             
   Description                                                                                      
     l       E           TYP  RCUT    TYP  RCUT                                                     
     0     -6.4927494     23  1.100                                                                 
     0      6.8029130     23  1.100                                                                 
     1     -4.0817478     23  1.100                                                                 
  local pseudopotential read in
  atomic valenz-charges read in
  non local Contribution for L=           0  read in
    real space projection operators read in
  non local Contribution for L=           0  read in
    real space projection operators read in
  non local Contribution for L=           1  read in
    real space projection operators read in
    PAW grid and wavefunctions read in
 
   number of l-projection  operators is LMAX  =           3
   number of lm-projection operators is LMMAX =           5
 
 POTCAR:    PAW_PBE O 08Apr2002                   
   VRHFIN =O: s2p4                                                                                  
   LEXCH  = PE                                                                                      
   EATOM  =   432.3788 eV,   31.7789 Ry                                                             
                                                                                                    
   TITEL  = PAW_PBE O 08Apr2002                                                                     
   LULTRA =        F    use ultrasoft PP ?                                                          
   IUNSCR =        1    unscreen: 0-lin 1-nonlin 2-no                                               
   RPACOR =    1.200    partial core radius                                                         
   POMASS =   16.000; ZVAL   =    6.000    mass and valenz                                          
   RCORE  =    1.520    outmost cutoff radius                                                       
   RWIGS  =    1.550; RWIGS  =    0.820    wigner-seitz radius (au A)                               
   ENMAX  =  400.000; ENMIN  =  300.000 eV                                                          
   ICORE  =        2    local potential                                                             
   LCOR   =        T    correct aug charges                                                         
   LPAW   =        T    paw PP                                                                      
   EAUG   =  605.392                                                                                
   DEXC   =    0.000                                                                                
   RMAX   =    1.553    core radius for proj-oper                                                   
   RAUG   =    1.300    factor for augmentation sphere                                              
   RDEP   =    1.550    radius for radial grids                                                     
   RDEPT  =    1.329    core radius for aug-charge                                                  
                                                                                                    
   Atomic configuration                                                                             
    4 entries                                                                                       
     n  l   j            E        occ.                                                              
     1  0  0.50      -514.6923   2.0000                                                             
     2  0  0.50       -23.9615   2.0000                                                             
     2  1  0.50        -9.0305   4.0000                                                             
     3  2  1.50        -9.5241   0.0000                                                             
   Description                                                                                      
     l       E           TYP  RCUT    TYP  RCUT                                                     
     0    -23.9615318     23  1.200                                                                 
     0     -9.5240782     23  1.200                                                                 
     1     -9.0304911     23  1.520                                                                 
     1      8.1634956     23  1.520                                                                 
     2     -9.5240782      7  1.500                                                                 
  local pseudopotential read in
  partial core-charges read in
  partial kinetic energy density read in
  kinetic energy density of atom read in
  atomic valenz-charges read in
  non local Contribution for L=           0  read in
    real space projection operators read in
  non local Contribution for L=           0  read in
    real space projection operators read in
  non local Contribution for L=           1  read in
    real space projection operators read in
  non local Contribution for L=           1  read in
    real space projection operators read in
    PAW grid and wavefunctions read in
 
   number of l-projection  operators is LMAX  =           4
   number of lm-projection operators is LMMAX =           8
 
 POTCAR:    PAW_PBE F 08Apr2002                   
   VRHFIN =F: s2p5                                                                                  
   LEXCH  = PE                                                                                      
   EATOM  =   659.6475 eV,   48.4827 Ry                                                             
                                                                                                    
   TITEL  = PAW_PBE F 08Apr2002                                                                     
   LULTRA =        F    use ultrasoft PP ?                                                          
   IUNSCR =        1    unscreen: 0-lin 1-nonlin 2-no                                               
   RPACOR =    1.200    partial core radius                                                         
   POMASS =   18.998; ZVAL   =    7.000    mass and valenz                                          
   RCORE  =    1.520    outmost cutoff radius                                                       
   RWIGS  =    1.500; RWIGS  =    0.794    wigner-seitz radius (au A)                               
   ENMAX  =  400.000; ENMIN  =  300.000 eV                                                          
   ICORE  =        2    local potential                                                             
   LCOR   =        T    correct aug charges                                                         
   LPAW   =        T    paw PP                                                                      
   EAUG   =  613.614                                                                                
   RMAX   =    1.555    core radius for proj-oper                                                   
   RAUG   =    1.300    factor for augmentation sphere                                              
   RDEP   =    1.539    radius for radial grids                                                     
   RDEPT  =    1.299    core radius for aug-charge                                                  
                                                                                                    
   Atomic configuration                                                                             
    4 entries                                                                                       
     n  l   j            E        occ.                                                              
     1  0  0.50      -663.3661   2.0000                                                             
     2  0  0.50       -29.8995   2.0000                                                             
     2  1  0.50       -11.1114   5.0000                                                             
     3  2  1.50       -10.8847   0.0000                                                             
   Description                                                                                      
     l       E           TYP  RCUT    TYP  RCUT                                                     
     0    -29.8995018     23  1.200                                                                 
     0     -9.5240782     23  1.200                                                                 
     1    -11.1113914     23  1.520                                                                 
     1      1.3605826     23  1.520                                                                 
     2    -10.8846608      7  1.500                                                                 
  local pseudopotential read in
  partial core-charges read in
  partial kinetic energy density read in
  atomic valenz-charges read in
  non local Contribution for L=           0  read in
    real space projection operators read in
  non local Contribution for L=           0  read in
    real space projection operators read in
  non local Contribution for L=           1  read in
    real space projection operators read in
  non local Contribution for L=           1  read in
    real space projection operators read in
    PAW grid and wavefunctions read in
 
   number of l-projection  operators is LMAX  =           4
   number of lm-projection operators is LMMAX =           8
 
 Optimization of the real space projectors (new method)

 maximal supplied QI-value         = 16.25
 optimisation between [QCUT,QGAM] = [ 12.51, 25.03] = [ 43.85,175.40] Ry 
 Optimized for a Real-space Cutoff    1.27 Angstroem

   l    n(q)    QCUT    max X(q) W(low)/X(q) W(high)/X(q)  e(spline) 
   0     10    12.514   224.858    0.15E-03    0.11E-03    0.12E-06
   0     10    12.514   205.313    0.15E-03    0.11E-03    0.12E-06
   1      9    12.514   119.695    0.70E-04    0.26E-03    0.21E-06
   1      9    12.514    84.282    0.69E-04    0.26E-03    0.21E-06
   2      9    12.514     5.599    0.93E-04    0.65E-04    0.52E-07
 Optimization of the real space projectors (new method)

 maximal supplied QI-value         = 34.20
 optimisation between [QCUT,QGAM] = [ 12.31, 24.97] = [ 42.46,174.58] Ry 
 Optimized for a Real-space Cutoff    1.13 Angstroem

   l    n(q)    QCUT    max X(q) W(low)/X(q) W(high)/X(q)  e(spline) 
   0      8    12.313    19.460    0.10E-03    0.25E-03    0.27E-06
   0      8    12.313    12.209    0.92E-04    0.23E-03    0.26E-06
   1      8    12.313     4.655    0.24E-03    0.28E-03    0.15E-06
 Optimization of the real space projectors (new method)

 maximal supplied QI-value         = 24.76
 optimisation between [QCUT,QGAM] = [ 12.38, 25.00] = [ 42.90,175.06] Ry 
 Optimized for a Real-space Cutoff    1.16 Angstroem

   l    n(q)    QCUT    max X(q) W(low)/X(q) W(high)/X(q)  e(spline) 
   0      9    12.378    20.381    0.16E-03    0.67E-05    0.31E-06
   0      9    12.378    15.268    0.17E-03    0.81E-05    0.33E-06
   1      8    12.378     5.964    0.20E-03    0.16E-03    0.30E-06
   1      8    12.378     5.382    0.18E-03    0.14E-03    0.26E-06
 Optimization of the real space projectors (new method)

 maximal supplied QI-value         = 24.76
 optimisation between [QCUT,QGAM] = [ 12.38, 25.00] = [ 42.90,175.06] Ry 
 Optimized for a Real-space Cutoff    1.16 Angstroem

   l    n(q)    QCUT    max X(q) W(low)/X(q) W(high)/X(q)  e(spline) 
   0      9    12.378    14.049    0.11E-03    0.38E-05    0.23E-06
   0      9    12.378     8.945    0.15E-03    0.56E-05    0.30E-06
   1      8    12.378     7.086    0.18E-03    0.14E-03    0.29E-06
   1      8    12.378     6.747    0.16E-03    0.13E-03    0.26E-06
  PAW_PBE Te 08Apr2002                  :
 energy of atom  1       EATOM= -223.2721
 kinetic energy error for atom=    0.0004 (will be added to EATOM!!)
  PAW_PBE H 15Jun2001                   :
 energy of atom  2       EATOM=  -12.4884
 kinetic energy error for atom=    0.0004 (will be added to EATOM!!)
  PAW_PBE O 08Apr2002                   :
 energy of atom  3       EATOM= -432.3788
 kinetic energy error for atom=    0.0168 (will be added to EATOM!!)
  PAW_PBE F 08Apr2002                   :
 energy of atom  4       EATOM= -659.6475
 kinetic energy error for atom=    0.0256 (will be added to EATOM!!)
 
 
 POSCAR: Te4 H4 O6 F8
  positions in direct lattice
  velocities in cartesian coordinates
 exchange correlation table for  LEXCH =        8
   RHO(1)=    0.500       N(1)  =     2000
   RHO(2)=  100.500       N(2)  =     4000
 


--------------------------------------------------------------------------------------------------------


 ion  position               nearest neighbor table
   1  0.693  0.410  0.083-  13 1.93  10 1.95  16 1.99  21 2.06  11 2.76   2 3.36
   2  0.814  0.083  0.410-  14 1.93  10 1.95  15 1.99  22 2.06  12 2.76   1 3.36
   3  0.840  0.557  0.436-  11 1.93   9 1.95  18 1.99  19 2.06  13 2.76   4 3.36
   4  0.167  0.436  0.557-  12 1.93   9 1.95  17 1.99  20 2.06  14 2.76   3 3.36
   5  0.435  0.768  0.810-  11 1.00
   6  0.987  0.810  0.768-  12 1.00
   7  0.482  0.815  0.263-  13 1.00
   8  0.440  0.263  0.815-  14 1.00
   9  0.793  0.707  0.707-   3 1.95   4 1.95
  10  0.543  0.457  0.457-   1 1.95   2 1.95
  11  0.642  0.595  0.727-   5 1.00   3 1.93   1 2.76
  12  0.037  0.727  0.595-   6 1.00   4 1.93   2 2.76
  13  0.655  0.608  0.213-   7 1.00   1 1.93   3 2.76
  14  0.523  0.213  0.608-   8 1.00   2 1.93   4 2.76
  15  0.574  0.347  0.839-   2 1.99
  16  0.239  0.839  0.347-   1 1.99
  17  0.903  0.676  0.011-   4 1.99
  18  0.411  0.011  0.676-   3 1.99
  19  0.208  0.154  0.361-   3 2.06
  20  0.277  0.361  0.154-   4 2.06
  21  0.096  0.042  0.973-   1 2.06
  22  0.889  0.973  0.042-   2 2.06
 
  LATTYP: Found a face centered orthorhombic cell.
 ALAT       =     4.7503166529
 B/A-ratio  =     2.4189278225
 C/A-ratio  =     4.4093294900
  
  Lattice vectors:
  
 A1 = (  10.7013289827,   0.0506386808,   5.3074090996)
 A2 = (   9.7776072251,   4.3466365294,   0.9095221233)
 A3 = (   0.0012512000,  -0.0058190171,   6.2169312218)


Analysis of symmetry for initial positions (statically):
=====================================================================
 Subroutine PRICEL returns:
 Original cell was already a primitive cell.
 

 Routine SETGRP: Setting up the symmetry group for a 
 face centered orthorhombic supercell.


 Subroutine GETGRP returns: Found  4 space group operations
 (whereof  2 operations were pure point group operations)
 out of a pool of  8 trial point group operations.


The static configuration has the point symmetry C_2 .
 The point group associated with its full space group is C_2v.


Analysis of symmetry for dynamics (positions and initial velocities):
=====================================================================
 Subroutine PRICEL returns:
 Original cell was already a primitive cell.
 

 Routine SETGRP: Setting up the symmetry group for a 
 face centered orthorhombic supercell.


 Subroutine GETGRP returns: Found  4 space group operations
 (whereof  2 operations were pure point group operations)
 out of a pool of  8 trial point group operations.


The dynamic configuration has the point symmetry C_2 .
 The point group associated with its full space group is C_2v.


 Subroutine INISYM returns: Found  4 space group operations
 (whereof  2 operations are pure point group operations),
 and found     1 'primitive' translations


----------------------------------------------------------------------------------------

                                     Primitive cell                                     

  volume of cell :     285.8269

  direct lattice vectors                    reciprocal lattice vectors
    10.701328983  0.050638681  5.307409100     0.094560832 -0.212665659 -0.000218085
     9.777607225  4.346636529  0.909522123    -0.001209477  0.232737987  0.000218085
     0.001251200 -0.005819017  6.216931222    -0.080549866  0.147504174  0.161005338

  length of vectors
    11.945275117 10.738811976  6.216934071     0.232741232  0.232741232  0.232741232

  position of ions in fractional coordinates (direct lattice)
     0.693261577  0.409910858  0.083165206
     0.813661360  0.083165206  0.409910858
     0.840089142  0.556738423  0.436338640
     0.166834794  0.436338640  0.556738423
     0.434600605  0.768370596  0.809744774
     0.987284025  0.809744774  0.768370596
     0.481629404  0.815399395  0.262715975
     0.440255226  0.262715975  0.815399395
     0.792843781  0.707156219  0.707156219
     0.542843781  0.457156219  0.457156219
     0.641902586  0.594644339  0.726716382
     0.036736693  0.726716382  0.594644339
     0.655355661  0.608097414  0.213263307
     0.523283618  0.213263307  0.608097414
     0.574429173  0.347375505  0.839026206
     0.239170117  0.839026206  0.347375505
     0.902624495  0.675570827  0.010829883
     0.410973794  0.010829883  0.675570827
     0.207975567  0.153794163  0.360995755
     0.277235516  0.360995755  0.153794163
     0.096205837  0.042024433  0.972764484
     0.889004245  0.972764484  0.042024433

  ion indices of the primitive-cell ions
   primitive index   ion index
                 1           1
                 2           2
                 3           3
                 4           4
                 5           5
                 6           6
                 7           7
                 8           8
                 9           9
                10          10
                11          11
                12          12
                13          13
                14          14
                15          15
                16          16
                17          17
                18          18
                19          19
                20          20
                21          21
                22          22

----------------------------------------------------------------------------------------

 
 
 KPOINTS: pymatgen with grid density = 3000 / numb

Automatic generation of k-mesh.
 Grid dimensions read from file:
 generate k-points for:    4    6   10

 Generating k-lattice:

  Cartesian coordinates                     Fractional coordinates (reciprocal lattice)
     0.023640208 -0.053166415 -0.000054521     0.250000000 -0.000000000  0.000000000
    -0.000201579  0.038789665  0.000036348     0.000000000  0.166666667  0.000000000
    -0.008054987  0.014750417  0.016100534    -0.000000000  0.000000000  0.100000000

  Length of vectors
     0.058185308  0.038790205  0.023274123

  Shift w.r.t. Gamma in fractional coordinates (k-lattice)
     0.000000000  0.000000000  0.000000000

 -----------------------------------------------------------------------------
|                                                                             |
|           W    W    AA    RRRRR   N    N  II  N    N   GGGG   !!!           |
|           W    W   A  A   R    R  NN   N  II  NN   N  G    G  !!!           |
|           W    W  A    A  R    R  N N  N  II  N N  N  G       !!!           |
|           W WW W  AAAAAA  RRRRR   N  N N  II  N  N N  G  GGG   !            |
|           WW  WW  A    A  R   R   N   NN  II  N   NN  G    G                |
|           W    W  A    A  R    R  N    N  II  N    N   GGGG   !!!           |
|                                                                             |
|     Your reciprocal lattice and k-lattice belong to different lattice       |
|     classes:                                                                |
|                                                                             |
|        The reciprocal lattice is body-centered orthorhombic,                |
|        whereas your k-lattice is triclinic.                                 |
|                                                                             |
|     Results are often still useful ...                                      |
|                                                                             |
 -----------------------------------------------------------------------------

 WARNING: IBZKPT: internal override: KBLOWUP is changed to .FALSE.
      ... skipping the blow-up phase ...

 TETIRR: Found    720 inequivalent tetrahedra from     1440
 
 Subroutine IBZKPT returns following result:
 ===========================================
 
 Found    121 irreducible k-points:
 
 Following reciprocal coordinates:
            Coordinates               Weight
  0.000000  0.000000  0.000000      1.000000
  0.250000 -0.000000  0.000000      2.000000
  0.500000 -0.000000  0.000000      4.000000
  0.000000  0.166667  0.000000      2.000000
  0.250000  0.166667  0.000000      2.000000
  0.500000  0.166667  0.000000      2.000000
 -0.250000  0.166667 -0.000000      2.000000
 -0.000000  0.333333 -0.000000      2.000000
  0.250000  0.333333 -0.000000      2.000000
  0.500000  0.333333 -0.000000      2.000000
 -0.250000  0.333333  0.000000      2.000000
  0.250000  0.500000 -0.000000      2.000000
  0.500000  0.500000 -0.000000      1.000000
  0.000000  0.000000  0.100000      2.000000
  0.250000 -0.000000  0.100000      2.000000
  0.500000  0.000000  0.100000      2.000000
 -0.250000  0.000000  0.100000      2.000000
 -0.000000  0.166667  0.100000      2.000000
  0.250000  0.166667  0.100000      2.000000
  0.500000  0.166667  0.100000      2.000000
 -0.250000  0.166667  0.100000      2.000000
  0.000000  0.333333  0.100000      2.000000
  0.250000  0.333333  0.100000      2.000000
  0.500000  0.333333  0.100000      2.000000
 -0.250000  0.333333  0.100000      2.000000
 -0.000000  0.500000  0.100000      2.000000
  0.250000  0.500000  0.100000      2.000000
  0.500000  0.500000  0.100000      2.000000
 -0.250000  0.500000  0.100000      2.000000
  0.000000 -0.333333  0.100000      2.000000
  0.250000 -0.333333  0.100000      2.000000
  0.500000 -0.333333  0.100000      2.000000
 -0.250000 -0.333333  0.100000      2.000000
 -0.000000 -0.166667  0.100000      2.000000
  0.250000 -0.166667  0.100000      2.000000
  0.500000 -0.166667  0.100000      2.000000
 -0.250000 -0.166667  0.100000      2.000000
  0.000000  0.000000  0.200000      2.000000
  0.250000  0.000000  0.200000      2.000000
  0.500000 -0.000000  0.200000      2.000000
 -0.250000  0.000000  0.200000      2.000000
  0.000000  0.166667  0.200000      2.000000
  0.250000  0.166667  0.200000      2.000000
  0.500000  0.166667  0.200000      2.000000
 -0.250000  0.166667  0.200000      2.000000
  0.000000  0.333333  0.200000      2.000000
  0.250000  0.333333  0.200000      2.000000
  0.500000  0.333333  0.200000      2.000000
 -0.250000  0.333333  0.200000      2.000000
 -0.000000  0.500000  0.200000      2.000000
  0.250000  0.500000  0.200000      2.000000
  0.500000  0.500000  0.200000      2.000000
 -0.250000  0.500000  0.200000      2.000000
  0.000000 -0.333333  0.200000      2.000000
  0.250000 -0.333333  0.200000      2.000000
  0.500000 -0.333333  0.200000      2.000000
 -0.250000 -0.333333  0.200000      2.000000
 -0.000000 -0.166667  0.200000      2.000000
  0.250000 -0.166667  0.200000      2.000000
  0.500000 -0.166667  0.200000      2.000000
 -0.250000 -0.166667  0.200000      2.000000
  0.000000 -0.000000  0.300000      2.000000
  0.250000  0.000000  0.300000      2.000000
  0.500000  0.000000  0.300000      2.000000
 -0.250000  0.000000  0.300000      2.000000
  0.000000  0.166667  0.300000      2.000000
  0.250000  0.166667  0.300000      2.000000
  0.500000  0.166667  0.300000      2.000000
 -0.250000  0.166667  0.300000      2.000000
 -0.000000  0.333333  0.300000      2.000000
  0.250000  0.333333  0.300000      2.000000
  0.500000  0.333333  0.300000      2.000000
 -0.250000  0.333333  0.300000      2.000000
  0.000000  0.500000  0.300000      2.000000
  0.250000  0.500000  0.300000      2.000000
  0.500000  0.500000  0.300000      2.000000
 -0.250000  0.500000  0.300000      2.000000
  0.000000 -0.333333  0.300000      2.000000
  0.250000 -0.333333  0.300000      2.000000
  0.500000 -0.333333  0.300000      2.000000
 -0.250000 -0.333333  0.300000      2.000000
  0.000000 -0.166667  0.300000      2.000000
  0.250000 -0.166667  0.300000      2.000000
  0.500000 -0.166667  0.300000      2.000000
 -0.250000 -0.166667  0.300000      2.000000
  0.000000  0.000000  0.400000      2.000000
  0.250000  0.000000  0.400000      2.000000
  0.500000 -0.000000  0.400000      2.000000
 -0.250000  0.000000  0.400000      2.000000
 -0.000000  0.166667  0.400000      2.000000
  0.250000  0.166667  0.400000      2.000000
  0.500000  0.166667  0.400000      2.000000
 -0.250000  0.166667  0.400000      2.000000
 -0.000000  0.333333  0.400000      2.000000
  0.250000  0.333333  0.400000      2.000000
  0.500000  0.333333  0.400000      2.000000
 -0.250000  0.333333  0.400000      2.000000
 -0.000000  0.500000  0.400000      2.000000
  0.250000  0.500000  0.400000      2.000000
  0.500000  0.500000  0.400000      2.000000
 -0.250000  0.500000  0.400000      2.000000
  0.000000 -0.333333  0.400000      2.000000
  0.250000 -0.333333  0.400000      2.000000
  0.500000 -0.333333  0.400000      2.000000
 -0.250000 -0.333333  0.400000      2.000000
 -0.000000 -0.166667  0.400000      2.000000
  0.250000 -0.166667  0.400000      2.000000
  0.500000 -0.166667  0.400000      2.000000
 -0.250000 -0.166667  0.400000      2.000000
  0.250000  0.000000  0.500000      2.000000
  0.500000  0.000000  0.500000      1.000000
 -0.000000  0.166667  0.500000      2.000000
  0.250000  0.166667  0.500000      2.000000
  0.500000  0.166667  0.500000      2.000000
 -0.250000  0.166667  0.500000      2.000000
 -0.000000  0.333333  0.500000      2.000000
  0.250000  0.333333  0.500000      2.000000
  0.500000  0.333333  0.500000      2.000000
 -0.250000  0.333333  0.500000      2.000000
 -0.000000  0.500000  0.500000      1.000000
  0.250000  0.500000  0.500000      2.000000
 
 Following cartesian coordinates:
            Coordinates               Weight
  0.000000  0.000000  0.000000      1.000000
  0.023640 -0.053166 -0.000055      2.000000
  0.047280 -0.106333 -0.000109      4.000000
 -0.000202  0.038790  0.000036      2.000000
  0.023439 -0.014377 -0.000018      2.000000
  0.047079 -0.067543 -0.000073      2.000000
 -0.023842  0.091956  0.000091      2.000000
 -0.000403  0.077579  0.000073      2.000000
  0.023237  0.024413  0.000018      2.000000
  0.046877 -0.028754 -0.000036      2.000000
 -0.024043  0.130746  0.000127      2.000000
  0.023035  0.063203  0.000055      2.000000
  0.046676  0.010036  0.000000      1.000000
 -0.008055  0.014750  0.016101      2.000000
  0.015585 -0.038416  0.016046      2.000000
  0.039225 -0.091582  0.015991      2.000000
 -0.031695  0.067917  0.016155      2.000000
 -0.008257  0.053540  0.016137      2.000000
  0.015384  0.000374  0.016082      2.000000
  0.039024 -0.052793  0.016028      2.000000
 -0.031897  0.106706  0.016191      2.000000
 -0.008458  0.092330  0.016173      2.000000
  0.015182  0.039163  0.016119      2.000000
  0.038822 -0.014003  0.016064      2.000000
 -0.032098  0.145496  0.016228      2.000000
 -0.008660  0.131119  0.016210      2.000000
  0.014980  0.077953  0.016155      2.000000
  0.038621  0.024787  0.016101      2.000000
 -0.032300  0.184286  0.016264      2.000000
 -0.007652 -0.062829  0.016028      2.000000
  0.015988 -0.115995  0.015973      2.000000
  0.039629 -0.169162  0.015919      2.000000
 -0.031292 -0.009662  0.016082      2.000000
 -0.007853 -0.024039  0.016064      2.000000
  0.015787 -0.077206  0.016010      2.000000
  0.039427 -0.130372  0.015955      2.000000
 -0.031494  0.029127  0.016119      2.000000
 -0.016110  0.029501  0.032201      2.000000
  0.007530 -0.023666  0.032147      2.000000
  0.031170 -0.076832  0.032092      2.000000
 -0.039750  0.082667  0.032256      2.000000
 -0.016312  0.068290  0.032237      2.000000
  0.007329  0.015124  0.032183      2.000000
  0.030969 -0.038042  0.032128      2.000000
 -0.039952  0.121457  0.032292      2.000000
 -0.016513  0.107080  0.032274      2.000000
  0.007127  0.053914  0.032219      2.000000
  0.030767  0.000747  0.032165      2.000000
 -0.040153  0.160247  0.032328      2.000000
 -0.016715  0.145870  0.032310      2.000000
  0.006925  0.092703  0.032256      2.000000
  0.030566  0.039537  0.032201      2.000000
 -0.040355  0.199036  0.032365      2.000000
 -0.015707 -0.048078  0.032128      2.000000
  0.007933 -0.101245  0.032074      2.000000
  0.031574 -0.154411  0.032019      2.000000
 -0.039347  0.005088  0.032183      2.000000
 -0.015908 -0.009289  0.032165      2.000000
  0.007732 -0.062455  0.032110      2.000000
  0.031372 -0.115622  0.032056      2.000000
 -0.039549  0.043878  0.032219      2.000000
 -0.024165  0.044251  0.048302      2.000000
 -0.000525 -0.008915  0.048247      2.000000
  0.023115 -0.062082  0.048193      2.000000
 -0.047805  0.097418  0.048356      2.000000
 -0.024367  0.083041  0.048338      2.000000
 -0.000726  0.029875  0.048283      2.000000
  0.022914 -0.023292  0.048229      2.000000
 -0.048007  0.136207  0.048392      2.000000
 -0.024568  0.121831  0.048374      2.000000
 -0.000928  0.068664  0.048320      2.000000
  0.022712  0.015498  0.048265      2.000000
 -0.048208  0.174997  0.048429      2.000000
 -0.024770  0.160620  0.048411      2.000000
 -0.001129  0.107454  0.048356      2.000000
  0.022511  0.054287  0.048302      2.000000
 -0.048410  0.213787  0.048465      2.000000
 -0.023762 -0.033328  0.048229      2.000000
 -0.000122 -0.086494  0.048174      2.000000
  0.023519 -0.139661  0.048120      2.000000
 -0.047402  0.019838  0.048283      2.000000
 -0.023963  0.005462  0.048265      2.000000
 -0.000323 -0.047705  0.048211      2.000000
  0.023317 -0.100871  0.048156      2.000000
 -0.047604  0.058628  0.048320      2.000000
 -0.032220  0.059002  0.064402      2.000000
 -0.008580  0.005835  0.064348      2.000000
  0.015060 -0.047331  0.064293      2.000000
 -0.055860  0.112168  0.064457      2.000000
 -0.032422  0.097791  0.064438      2.000000
 -0.008781  0.044625  0.064384      2.000000
  0.014859 -0.008541  0.064329      2.000000
 -0.056062  0.150958  0.064493      2.000000
 -0.032623  0.136581  0.064475      2.000000
 -0.008983  0.083415  0.064420      2.000000
  0.014657  0.030248  0.064366      2.000000
 -0.056263  0.189747  0.064529      2.000000
 -0.032825  0.175371  0.064511      2.000000
 -0.009184  0.122204  0.064457      2.000000
  0.014456  0.069038  0.064402      2.000000
 -0.056465  0.228537  0.064566      2.000000
 -0.031817 -0.018578  0.064329      2.000000
 -0.008177 -0.071744  0.064275      2.000000
  0.015464 -0.124910  0.064220      2.000000
 -0.055457  0.034589  0.064384      2.000000
 -0.032018  0.020212  0.064366      2.000000
 -0.008378 -0.032954  0.064311      2.000000
  0.015262 -0.086121  0.064257      2.000000
 -0.055659  0.073378  0.064420      2.000000
 -0.016635  0.020586  0.080448      2.000000
  0.007005 -0.032581  0.080394      1.000000
 -0.040477  0.112542  0.080539      2.000000
 -0.016836  0.059375  0.080484      2.000000
  0.006804  0.006209  0.080430      2.000000
 -0.064117  0.165708  0.080594      2.000000
 -0.040678  0.151331  0.080575      2.000000
 -0.017038  0.098165  0.080521      2.000000
  0.006602  0.044999  0.080466      2.000000
 -0.064318  0.204498  0.080630      2.000000
 -0.040880  0.190121  0.080612      1.000000
 -0.017239  0.136955  0.080557      2.000000
 


--------------------------------------------------------------------------------------------------------




 Dimension of arrays:
   k-points           NKPTS =    121   k-points in BZ     NKDIM =    121   number of bands    NBANDS=     72
   number of dos      NEDOS =   4000   number of ions     NIONS =     22
   non local maximal  LDIM  =      5   non local SUM 2l+1 LMDIM =     13
   total plane-waves  NPLWV = 432000
   max r-space proj   IRMAX =  12977   max aug-charges    IRDMAX=  88097
   dimension x,y,z NGX =    96 NGY =   90 NGZ =   50
   dimension x,y,z NGXF=   192 NGYF=  180 NGZF=  100
   support grid    NGXF=   192 NGYF=  180 NGZF=  100
   ions per type =               4   4   6   8
   NGX,Y,Z   is equivalent  to a cutoff of  13.36, 13.93, 13.37 a.u.
   NGXF,Y,Z  is equivalent  to a cutoff of  26.72, 27.87, 26.74 a.u.

 SYSTEM =  unknown system                          
 POSCAR =  Te4 H4 O6 F8                            

 Startparameter for this run:
   NWRITE =      2    write-flag & timer
   PREC   = accura    normal or accurate (medium, high low for compatibility)
   ISTART =      0    job   : 0-new  1-cont  2-samecut
   ICHARG =     11    charge: 1-file 2-atom 10-const
   ISPIN  =      1    spin polarized calculation?
   LNONCOLLINEAR =      F non collinear calculations
   LSORBIT =      F    spin-orbit coupling
   INIWAV =      1    electr: 0-lowe 1-rand  2-diag
   LASPH  =      T    aspherical Exc in radial PAW
 Electronic Relaxation 1
   ENCUT  =  600.0 eV  44.10 Ry    6.64 a.u.  23.86 21.45 12.42*2*pi/ulx,y,z
   ENINI  =  600.0     initial cutoff
   ENAUG  =  613.6 eV  augmentation charge cutoff
   NELM   =    200;   NELMIN=  2; NELMDL= -5     # of ELM steps 
   EDIFF  = 0.1E-05   stopping-criterion for ELM
   LREAL  =      T    real-space projection
   NLSPLINE    = F    spline interpolate recip. space projectors
   LCOMPAT=      F    compatible to vasp.4.4
   GGA_COMPAT  = T    GGA compatible to vasp.4.4-vasp.4.6
   LMAXPAW     = -100 max onsite density
   LMAXMIX     =    4 max onsite mixed and CHGCAR
   VOSKOWN=      0    Vosko Wilk Nusair interpolation
   ROPT   =   -0.00025  -0.00025  -0.00025  -0.00025
 Ionic relaxation
   EDIFFG = 0.1E-04   stopping-criterion for IOM
   NSW    =      0    number of steps for IOM
   NBLOCK =      1;   KBLOCK =      1    inner block; outer block 
   IBRION =     -1    ionic relax: 0-MD 1-quasi-New 2-CG
   NFREE  =      0    steps in history (QN), initial steepest desc. (CG)
   ISIF   =      2    stress and relaxation
   IWAVPR =     10    prediction:  0-non 1-charg 2-wave 3-comb
   ISYM   =      2    0-nonsym 1-usesym 2-fastsym
   LCORR  =      T    Harris-Foulkes like correction to forces

   POTIM  = 0.5000    time-step for ionic-motion
   TEIN   =    0.0    initial temperature
   TEBEG  =    0.0;   TEEND  =   0.0 temperature during run
   SMASS  =  -3.00    Nose mass-parameter (am)
   estimated Nose-frequenzy (Omega)   =  0.10E-29 period in steps = 0.13E+47 mass=  -0.326E-26a.u.
   SCALEE = 1.0000    scale energy and forces
   NPACO  =    256;   APACO  = 10.0  distance and # of slots for P.C.
   PSTRESS=    0.0 pullay stress

  Mass of Ions in am
   POMASS = 127.60  1.00 16.00 19.00
  Ionic Valenz
   ZVAL   =   6.00  1.00  6.00  7.00
  Atomic Wigner-Seitz radii
   RWIGS  =  -1.00 -1.00 -1.00 -1.00
  virtual crystal weights 
   VCA    =   1.00  1.00  1.00  1.00
   NELECT =     120.0000    total number of electrons
   NUPDOWN=      -1.0000    fix difference up-down

 DOS related values:
   EMIN   =  10.00;   EMAX   =-10.00  energy-range for DOS
   EFERMI =   0.00
   ISMEAR =    -5;   SIGMA  =   0.20  broadening in eV -4-tet -1-fermi 0-gaus

 Electronic relaxation 2 (details)
   IALGO  =     68    algorithm
   LDIAG  =      T    sub-space diagonalisation (order eigenvalues)
   LSUBROT=      F    optimize rotation matrix (better conditioning)
   TURBO    =      0    0=normal 1=particle mesh
   IRESTART =      0    0=no restart 2=restart with 2 vectors
   NREBOOT  =      0    no. of reboots
   NMIN     =      0    reboot dimension
   EREF     =   0.00    reference energy to select bands
   IMIX   =      4    mixing-type and parameters
     AMIX     =   0.40;   BMIX     =  1.00
     AMIX_MAG =   1.60;   BMIX_MAG =  1.00
     AMIN     =   0.10
     WC   =   100.;   INIMIX=   1;  MIXPRE=   1;  MAXMIX= -45

 Intra band minimization:
   WEIMIN = 0.0000     energy-eigenvalue tresh-hold
   EBREAK =  0.35E-08  absolut break condition
   DEPER  =   0.30     relativ break condition  

   TIME   =   0.40     timestep for ELM

  volume/ion in A,a.u.               =      12.99        87.68
  Fermi-wavevector in a.u.,A,eV,Ry     =   1.225841  2.316504 20.445291  1.502687
  Thomas-Fermi vector in A             =   2.360864
 
 Write flags
   LWAVE        =      F    write WAVECAR
   LDOWNSAMPLE  =      F    k-point downsampling of WAVECAR
   LCHARG       =      F    write CHGCAR
   LVTOT        =      F    write LOCPOT, total local potential
   LVHAR        =      F    write LOCPOT, Hartree potential only
   LELF         =      F    write electronic localiz. function (ELF)
   LORBIT       =     11    0 simple, 1 ext, 2 COOP (PROOUT), +10 PAW based schemes


 Dipole corrections
   LMONO  =      F    monopole corrections only (constant potential shift)
   LDIPOL =      F    correct potential (dipole corrections)
   IDIPOL =      0    1-x, 2-y, 3-z, 4-all directions 
   EPSILON=  1.0000000 bulk dielectric constant

 Exchange correlation treatment:
   GGA     =    --    GGA type
   LEXCH   =     8    internal setting for exchange type
   LIBXC   =     F    Libxc                    
   VOSKOWN =     0    Vosko Wilk Nusair interpolation
   LHFCALC =     F    Hartree Fock is set to
   LHFONE  =     F    Hartree Fock one center treatment
   AEXX    =    0.0000 exact exchange contribution

 Linear response parameters
   LEPSILON=     F    determine dielectric tensor
   LRPA    =     F    only Hartree local field effects (RPA)
   LNABLA  =     F    use nabla operator in PAW spheres
   LVEL    =     F    velocity operator in full k-point grid
   CSHIFT  =0.1000    complex shift for real part using Kramers Kronig
   OMEGAMAX=  -1.0    maximum frequency
   DEG_THRESHOLD= 0.2000000E-02 threshold for treating states as degnerate
   RTIME   =   -0.100 relaxation time in fs
  (WPLASMAI=    0.000 imaginary part of plasma frequency in eV, 0.658/RTIME)
   DFIELD  = 0.0000000 0.0000000 0.0000000 field for delta impulse in time
 
  Optional k-point grid parameters
   LKPOINTS_OPT  =     F    use optional k-point grid
   KPOINTS_OPT_MODE=     1    mode for optional k-point grid
 
 Orbital magnetization related:
   ORBITALMAG=     F  switch on orbital magnetization
   LCHIMAG   =     F  perturbation theory with respect to B field
   DQ        =  0.001000  dq finite difference perturbation B field
   LLRAUG    =     F  two centre corrections for induced B field



--------------------------------------------------------------------------------------------------------


 Static calculation
 charge density and potential remain constant during run
 non-spin polarized calculation
 RMM-DIIS sequential band-by-band and
  variant of blocked Davidson during initial phase
 perform sub-space diagonalisation
    before iterative eigenvector-optimisation
 no mixing
 using additional bands           12
 real space projection scheme for non local part
 use partial core corrections
 calculate Harris-corrections to forces 
   (improved forces if not selfconsistent)
 use gradient corrections 
 WARNING: stress and forces are not correct
  (second derivative of E(xc) not defined)
 use of overlap-Matrix (Vanderbilt PP)
 Fermi weights with tetrahedron method with Bloechl corrections


--------------------------------------------------------------------------------------------------------


  energy-cutoff  :      600.00
  volume of cell :      285.83
      direct lattice vectors                 reciprocal lattice vectors
    10.701328983  0.050638681  5.307409100     0.094560832 -0.212665659 -0.000218085
     9.777607225  4.346636529  0.909522123    -0.001209477  0.232737987  0.000218085
     0.001251200 -0.005819017  6.216931222    -0.080549866  0.147504174  0.161005338

  length of vectors
    11.945275117 10.738811976  6.216934071     0.232741232  0.232741232  0.232741232


 
 k-points in units of 2pi/SCALE and weight: pymatgen with grid density = 3000 / numb
   0.00000000  0.00000000  0.00000000       0.004
   0.02364021 -0.05316641 -0.00005452       0.008
   0.04728042 -0.10633283 -0.00010904       0.017
  -0.00020158  0.03878966  0.00003635       0.008
   0.02343863 -0.01437675 -0.00001817       0.008
   0.04707884 -0.06754317 -0.00007270       0.008
  -0.02384179  0.09195608  0.00009087       0.008
  -0.00040316  0.07757933  0.00007270       0.008
   0.02323705  0.02441291  0.00001817       0.008
   0.04687726 -0.02875350 -0.00003635       0.008
  -0.02404337  0.13074574  0.00012722       0.008
   0.02303547  0.06320258  0.00005452       0.008
   0.04667568  0.01003616  0.00000000       0.004
  -0.00805499  0.01475042  0.01610053       0.008
   0.01558522 -0.03841600  0.01604601       0.008
   0.03922543 -0.09158241  0.01599149       0.008
  -0.03169519  0.06791683  0.01615506       0.008
  -0.00825657  0.05354008  0.01613688       0.008
   0.01538364  0.00037367  0.01608236       0.008
   0.03902385 -0.05279275  0.01602784       0.008
  -0.03189677  0.10670650  0.01619140       0.008
  -0.00845815  0.09232975  0.01617323       0.008
   0.01518206  0.03916333  0.01611871       0.008
   0.03882227 -0.01400308  0.01606419       0.008
  -0.03209835  0.14549616  0.01622775       0.008
  -0.00865973  0.13111941  0.01620958       0.008
   0.01498048  0.07795300  0.01615506       0.008
   0.03862069  0.02478658  0.01610053       0.008
  -0.03229993  0.18428583  0.01626410       0.008
  -0.00765183 -0.06282891  0.01602784       0.008
   0.01598838 -0.11599533  0.01597332       0.008
   0.03962859 -0.16916174  0.01591880       0.008
  -0.03129204 -0.00966250  0.01608236       0.008
  -0.00785341 -0.02403925  0.01606419       0.008
   0.01578680 -0.07720566  0.01600967       0.008
   0.03942701 -0.13037208  0.01595514       0.008
  -0.03149362  0.02912717  0.01611871       0.008
  -0.01610997  0.02950083  0.03220107       0.008
   0.00753023 -0.02366558  0.03214655       0.008
   0.03117044 -0.07683199  0.03209203       0.008
  -0.03975018  0.08266725  0.03225559       0.008
  -0.01631155  0.06829050  0.03223742       0.008
   0.00732866  0.01512408  0.03218289       0.008
   0.03096886 -0.03804233  0.03212837       0.008
  -0.03995176  0.12145691  0.03229194       0.008
  -0.01651313  0.10708016  0.03227376       0.008
   0.00712708  0.05391375  0.03221924       0.008
   0.03076728  0.00074733  0.03216472       0.008
  -0.04015334  0.16024658  0.03232828       0.008
  -0.01671471  0.14586983  0.03231011       0.008
   0.00692550  0.09270341  0.03225559       0.008
   0.03056570  0.03953700  0.03220107       0.008
  -0.04035492  0.19903624  0.03236463       0.008
  -0.01570681 -0.04807849  0.03212837       0.008
   0.00793339 -0.10124491  0.03207385       0.008
   0.03157360 -0.15441132  0.03201933       0.008
  -0.03934702  0.00508792  0.03218289       0.008
  -0.01590839 -0.00928883  0.03216472       0.008
   0.00773181 -0.06245524  0.03211020       0.008
   0.03137202 -0.11562166  0.03205568       0.008
  -0.03954860  0.04387759  0.03221924       0.008
  -0.02416496  0.04425125  0.04830160       0.008
  -0.00052475 -0.00891516  0.04824708       0.008
   0.02311546 -0.06208158  0.04819256       0.008
  -0.04780517  0.09741767  0.04835612       0.008
  -0.02436654  0.08304092  0.04833795       0.008
  -0.00072633  0.02987450  0.04828343       0.008
   0.02291388 -0.02329191  0.04822891       0.008
  -0.04800675  0.13620733  0.04839247       0.008
  -0.02456812  0.12183058  0.04837430       0.008
  -0.00092791  0.06866417  0.04831978       0.008
   0.02271230  0.01549775  0.04826525       0.008
  -0.04820833  0.17499700  0.04842882       0.008
  -0.02476970  0.16062025  0.04841064       0.008
  -0.00112949  0.10745383  0.04835612       0.008
   0.02251072  0.05428742  0.04830160       0.008
  -0.04840991  0.21378666  0.04846517       0.008
  -0.02376180 -0.03332808  0.04822891       0.008
  -0.00012159 -0.08649449  0.04817439       0.008
   0.02351862 -0.13966091  0.04811986       0.008
  -0.04740201  0.01983834  0.04828343       0.008
  -0.02396338  0.00546159  0.04826525       0.008
  -0.00032317 -0.04770483  0.04821073       0.008
   0.02331704 -0.10087124  0.04815621       0.008
  -0.04760359  0.05862800  0.04831978       0.008
  -0.03221995  0.05900167  0.06440214       0.008
  -0.00857974  0.00583525  0.06434761       0.008
   0.01506047 -0.04733116  0.06429309       0.008
  -0.05586015  0.11216808  0.06445666       0.008
  -0.03242153  0.09779133  0.06443848       0.008
  -0.00878132  0.04462492  0.06438396       0.008
   0.01485889 -0.00854150  0.06432944       0.008
  -0.05606173  0.15095775  0.06449300       0.008
  -0.03262311  0.13658100  0.06447483       0.008
  -0.00898290  0.08341458  0.06442031       0.008
   0.01465731  0.03024817  0.06436579       0.008
  -0.05626331  0.18974741  0.06452935       0.008
  -0.03282468  0.17537066  0.06451118       0.008
  -0.00918448  0.12220425  0.06445666       0.008
   0.01445573  0.06903783  0.06440214       0.008
  -0.05646489  0.22853708  0.06456570       0.008
  -0.03181679 -0.01857766  0.06432944       0.008
  -0.00817658 -0.07174407  0.06427492       0.008
   0.01546363 -0.12491049  0.06422040       0.008
  -0.05545700  0.03458876  0.06438396       0.008
  -0.03201837  0.02021201  0.06436579       0.008
  -0.00837816 -0.03295441  0.06431127       0.008
   0.01526205 -0.08612082  0.06425675       0.008
  -0.05565857  0.07337842  0.06442031       0.008
  -0.01663472  0.02058567  0.08044815       0.008
   0.00700548 -0.03258074  0.08039363       0.004
  -0.04047651  0.11254175  0.08053902       0.008
  -0.01683630  0.05937534  0.08048450       0.008
   0.00680390  0.00620892  0.08042997       0.008
  -0.06411672  0.16570817  0.08059354       0.008
  -0.04067809  0.15133142  0.08057536       0.008
  -0.01703788  0.09816500  0.08052084       0.008
   0.00660232  0.04499859  0.08046632       0.008
  -0.06431830  0.20449783  0.08062989       0.008
  -0.04087967  0.19012108  0.08061171       0.004
  -0.01723946  0.13695467  0.08055719       0.008
 
 k-points in reciprocal lattice and weights: pymatgen with grid density = 3000 / numb
   0.00000000  0.00000000  0.00000000       0.004
   0.25000000 -0.00000000  0.00000000       0.008
   0.50000000 -0.00000000  0.00000000       0.017
   0.00000000  0.16666667  0.00000000       0.008
   0.25000000  0.16666667  0.00000000       0.008
   0.50000000  0.16666667  0.00000000       0.008
  -0.25000000  0.16666667 -0.00000000       0.008
  -0.00000000  0.33333333 -0.00000000       0.008
   0.25000000  0.33333333 -0.00000000       0.008
   0.50000000  0.33333333 -0.00000000       0.008
  -0.25000000  0.33333333  0.00000000       0.008
   0.25000000  0.50000000 -0.00000000       0.008
   0.50000000  0.50000000 -0.00000000       0.004
   0.00000000  0.00000000  0.10000000       0.008
   0.25000000 -0.00000000  0.10000000       0.008
   0.50000000  0.00000000  0.10000000       0.008
  -0.25000000  0.00000000  0.10000000       0.008
  -0.00000000  0.16666667  0.10000000       0.008
   0.25000000  0.16666667  0.10000000       0.008
   0.50000000  0.16666667  0.10000000       0.008
  -0.25000000  0.16666667  0.10000000       0.008
   0.00000000  0.33333333  0.10000000       0.008
   0.25000000  0.33333333  0.10000000       0.008
   0.50000000  0.33333333  0.10000000       0.008
  -0.25000000  0.33333333  0.10000000       0.008
  -0.00000000  0.50000000  0.10000000       0.008
   0.25000000  0.50000000  0.10000000       0.008
   0.50000000  0.50000000  0.10000000       0.008
  -0.25000000  0.50000000  0.10000000       0.008
   0.00000000 -0.33333333  0.10000000       0.008
   0.25000000 -0.33333333  0.10000000       0.008
   0.50000000 -0.33333333  0.10000000       0.008
  -0.25000000 -0.33333333  0.10000000       0.008
  -0.00000000 -0.16666667  0.10000000       0.008
   0.25000000 -0.16666667  0.10000000       0.008
   0.50000000 -0.16666667  0.10000000       0.008
  -0.25000000 -0.16666667  0.10000000       0.008
   0.00000000  0.00000000  0.20000000       0.008
   0.25000000  0.00000000  0.20000000       0.008
   0.50000000 -0.00000000  0.20000000       0.008
  -0.25000000  0.00000000  0.20000000       0.008
   0.00000000  0.16666667  0.20000000       0.008
   0.25000000  0.16666667  0.20000000       0.008
   0.50000000  0.16666667  0.20000000       0.008
  -0.25000000  0.16666667  0.20000000       0.008
   0.00000000  0.33333333  0.20000000       0.008
   0.25000000  0.33333333  0.20000000       0.008
   0.50000000  0.33333333  0.20000000       0.008
  -0.25000000  0.33333333  0.20000000       0.008
  -0.00000000  0.50000000  0.20000000       0.008
   0.25000000  0.50000000  0.20000000       0.008
   0.50000000  0.50000000  0.20000000       0.008
  -0.25000000  0.50000000  0.20000000       0.008
   0.00000000 -0.33333333  0.20000000       0.008
   0.25000000 -0.33333333  0.20000000       0.008
   0.50000000 -0.33333333  0.20000000       0.008
  -0.25000000 -0.33333333  0.20000000       0.008
  -0.00000000 -0.16666667  0.20000000       0.008
   0.25000000 -0.16666667  0.20000000       0.008
   0.50000000 -0.16666667  0.20000000       0.008
  -0.25000000 -0.16666667  0.20000000       0.008
   0.00000000 -0.00000000  0.30000000       0.008
   0.25000000  0.00000000  0.30000000       0.008
   0.50000000  0.00000000  0.30000000       0.008
  -0.25000000  0.00000000  0.30000000       0.008
   0.00000000  0.16666667  0.30000000       0.008
   0.25000000  0.16666667  0.30000000       0.008
   0.50000000  0.16666667  0.30000000       0.008
  -0.25000000  0.16666667  0.30000000       0.008
  -0.00000000  0.33333333  0.30000000       0.008
   0.25000000  0.33333333  0.30000000       0.008
   0.50000000  0.33333333  0.30000000       0.008
  -0.25000000  0.33333333  0.30000000       0.008
   0.00000000  0.50000000  0.30000000       0.008
   0.25000000  0.50000000  0.30000000       0.008
   0.50000000  0.50000000  0.30000000       0.008
  -0.25000000  0.50000000  0.30000000       0.008
   0.00000000 -0.33333333  0.30000000       0.008
   0.25000000 -0.33333333  0.30000000       0.008
   0.50000000 -0.33333333  0.30000000       0.008
  -0.25000000 -0.33333333  0.30000000       0.008
   0.00000000 -0.16666667  0.30000000       0.008
   0.25000000 -0.16666667  0.30000000       0.008
   0.50000000 -0.16666667  0.30000000       0.008
  -0.25000000 -0.16666667  0.30000000       0.008
   0.00000000  0.00000000  0.40000000       0.008
   0.25000000  0.00000000  0.40000000       0.008
   0.50000000 -0.00000000  0.40000000       0.008
  -0.25000000  0.00000000  0.40000000       0.008
  -0.00000000  0.16666667  0.40000000       0.008
   0.25000000  0.16666667  0.40000000       0.008
   0.50000000  0.16666667  0.40000000       0.008
  -0.25000000  0.16666667  0.40000000       0.008
  -0.00000000  0.33333333  0.40000000       0.008
   0.25000000  0.33333333  0.40000000       0.008
   0.50000000  0.33333333  0.40000000       0.008
  -0.25000000  0.33333333  0.40000000       0.008
  -0.00000000  0.50000000  0.40000000       0.008
   0.25000000  0.50000000  0.40000000       0.008
   0.50000000  0.50000000  0.40000000       0.008
  -0.25000000  0.50000000  0.40000000       0.008
   0.00000000 -0.33333333  0.40000000       0.008
   0.25000000 -0.33333333  0.40000000       0.008
   0.50000000 -0.33333333  0.40000000       0.008
  -0.25000000 -0.33333333  0.40000000       0.008
  -0.00000000 -0.16666667  0.40000000       0.008
   0.25000000 -0.16666667  0.40000000       0.008
   0.50000000 -0.16666667  0.40000000       0.008
  -0.25000000 -0.16666667  0.40000000       0.008
   0.25000000  0.00000000  0.50000000       0.008
   0.50000000  0.00000000  0.50000000       0.004
  -0.00000000  0.16666667  0.50000000       0.008
   0.25000000  0.16666667  0.50000000       0.008
   0.50000000  0.16666667  0.50000000       0.008
  -0.25000000  0.16666667  0.50000000       0.008
  -0.00000000  0.33333333  0.50000000       0.008
   0.25000000  0.33333333  0.50000000       0.008
   0.50000000  0.33333333  0.50000000       0.008
  -0.25000000  0.33333333  0.50000000       0.008
  -0.00000000  0.50000000  0.50000000       0.004
   0.25000000  0.50000000  0.50000000       0.008
 
 position of ions in fractional coordinates (direct lattice) 
   0.69326158  0.40991086  0.08316521
   0.81366136  0.08316521  0.40991086
   0.84008914  0.55673842  0.43633864
   0.16683479  0.43633864  0.55673842
   0.43460061  0.76837060  0.80974477
   0.98728403  0.80974477  0.76837060
   0.48162940  0.81539939  0.26271597
   0.44025523  0.26271597  0.81539939
   0.79284378  0.70715622  0.70715622
   0.54284378  0.45715622  0.45715622
   0.64190259  0.59464434  0.72671638
   0.03673669  0.72671638  0.59464434
   0.65535566  0.60809741  0.21326331
   0.52328362  0.21326331  0.60809741
   0.57442917  0.34737551  0.83902621
   0.23917012  0.83902621  0.34737551
   0.90262449  0.67557083  0.01082988
   0.41097379  0.01082988  0.67557083
   0.20797557  0.15379416  0.36099575
   0.27723552  0.36099575  0.15379416
   0.09620584  0.04202443  0.97276448
   0.88900425  0.97276448  0.04202443
 
 position of ions in cartesian coordinates  (Angst):
  11.42687163  1.81635542  4.56927816
   9.52092749  0.40030638  6.94246191
  14.43418586  2.45994151  7.67774999
   6.05239845  1.90181410  4.74352464
  12.16464309  3.35712338  8.03958083
  18.48357889  3.56518981 10.75330815
  13.12705843  3.56710512  4.93111522
   7.28106985  1.15947997  7.64484254
  15.39966268  3.10978466  9.24746210
  10.27961583  2.01192061  6.13899649
  12.68431881  2.61297913  8.46562757
   7.49942280  3.15717202  4.55280424
  12.95918103  2.67512379  5.35716196
   7.68579586  0.94993794  6.75174773
   9.54470659  1.53412109  8.58084454
  10.76354143  3.65703183  4.19209617
  16.26476142  2.98210553  5.47237271
   4.50470140  0.06395358  6.39103344
   3.72980556  0.67691829  3.48797639
   6.49665558  1.58226124  2.75586365
   1.44164584  0.18187614  6.59643578
  19.02488853  4.27302710  5.86432305
 


--------------------------------------------------------------------------------------------------------


 k-point   1 :   0.0000 0.0000 0.0000  plane waves:    9603
 k-point   2 :   0.2500-0.0000 0.0000  plane waves:    9550
 k-point   3 :   0.5000-0.0000 0.0000  plane waves:    9522
 k-point   4 :   0.0000 0.1667 0.0000  plane waves:    9553
 k-point   5 :   0.2500 0.1667 0.0000  plane waves:    9565
 k-point   6 :   0.5000 0.1667 0.0000  plane waves:    9541
 k-point   7 :  -0.2500 0.1667-0.0000  plane waves:    9527
 k-point   8 :  -0.0000 0.3333-0.0000  plane waves:    9537
 k-point   9 :   0.2500 0.3333-0.0000  plane waves:    9552
 k-point  10 :   0.5000 0.3333-0.0000  plane waves:    9558
 k-point  11 :  -0.2500 0.3333 0.0000  plane waves:    9524
 k-point  12 :   0.2500 0.5000-0.0000  plane waves:    9550
 k-point  13 :   0.5000 0.5000-0.0000  plane waves:    9570
 k-point  14 :   0.0000 0.0000 0.1000  plane waves:    9586
 k-point  15 :   0.2500-0.0000 0.1000  plane waves:    9559
 k-point  16 :   0.5000 0.0000 0.1000  plane waves:    9521
 k-point  17 :  -0.2500 0.0000 0.1000  plane waves:    9539
 k-point  18 :  -0.0000 0.1667 0.1000  plane waves:    9546
 k-point  19 :   0.2500 0.1667 0.1000  plane waves:    9564
 k-point  20 :   0.5000 0.1667 0.1000  plane waves:    9546
 k-point  21 :  -0.2500 0.1667 0.1000  plane waves:    9509
 k-point  22 :   0.0000 0.3333 0.1000  plane waves:    9530
 k-point  23 :   0.2500 0.3333 0.1000  plane waves:    9564
 k-point  24 :   0.5000 0.3333 0.1000  plane waves:    9568
 k-point  25 :  -0.2500 0.3333 0.1000  plane waves:    9541
 k-point  26 :  -0.0000 0.5000 0.1000  plane waves:    9536
 k-point  27 :   0.2500 0.5000 0.1000  plane waves:    9547
 k-point  28 :   0.5000 0.5000 0.1000  plane waves:    9549
 k-point  29 :  -0.2500 0.5000 0.1000  plane waves:    9555
 k-point  30 :   0.0000-0.3333 0.1000  plane waves:    9549
 k-point  31 :   0.2500-0.3333 0.1000  plane waves:    9510
 k-point  32 :   0.5000-0.3333 0.1000  plane waves:    9556
 k-point  33 :  -0.2500-0.3333 0.1000  plane waves:    9558
 k-point  34 :  -0.0000-0.1667 0.1000  plane waves:    9567
 k-point  35 :   0.2500-0.1667 0.1000  plane waves:    9537
 k-point  36 :   0.5000-0.1667 0.1000  plane waves:    9519
 k-point  37 :  -0.2500-0.1667 0.1000  plane waves:    9564
 k-point  38 :   0.0000 0.0000 0.2000  plane waves:    9556
 k-point  39 :   0.2500 0.0000 0.2000  plane waves:    9558
 k-point  40 :   0.5000-0.0000 0.2000  plane waves:    9531
 k-point  41 :  -0.2500 0.0000 0.2000  plane waves:    9531
 k-point  42 :   0.0000 0.1667 0.2000  plane waves:    9542
 k-point  43 :   0.2500 0.1667 0.2000  plane waves:    9565
 k-point  44 :   0.5000 0.1667 0.2000  plane waves:    9555
 k-point  45 :  -0.2500 0.1667 0.2000  plane waves:    9516
 k-point  46 :   0.0000 0.3333 0.2000  plane waves:    9514
 k-point  47 :   0.2500 0.3333 0.2000  plane waves:    9544
 k-point  48 :   0.5000 0.3333 0.2000  plane waves:    9571
 k-point  49 :  -0.2500 0.3333 0.2000  plane waves:    9546
 k-point  50 :  -0.0000 0.5000 0.2000  plane waves:    9532
 k-point  51 :   0.2500 0.5000 0.2000  plane waves:    9531
 k-point  52 :   0.5000 0.5000 0.2000  plane waves:    9548
 k-point  53 :  -0.2500 0.5000 0.2000  plane waves:    9547
 k-point  54 :   0.0000-0.3333 0.2000  plane waves:    9557
 k-point  55 :   0.2500-0.3333 0.2000  plane waves:    9529
 k-point  56 :   0.5000-0.3333 0.2000  plane waves:    9555
 k-point  57 :  -0.2500-0.3333 0.2000  plane waves:    9567
 k-point  58 :  -0.0000-0.1667 0.2000  plane waves:    9567
 k-point  59 :   0.2500-0.1667 0.2000  plane waves:    9540
 k-point  60 :   0.5000-0.1667 0.2000  plane waves:    9505
 k-point  61 :  -0.2500-0.1667 0.2000  plane waves:    9543
 k-point  62 :   0.0000-0.0000 0.3000  plane waves:    9536
 k-point  63 :   0.2500 0.0000 0.3000  plane waves:    9560
 k-point  64 :   0.5000 0.0000 0.3000  plane waves:    9545
 k-point  65 :  -0.2500 0.0000 0.3000  plane waves:    9511
 k-point  66 :   0.0000 0.1667 0.3000  plane waves:    9526
 k-point  67 :   0.2500 0.1667 0.3000  plane waves:    9548
 k-point  68 :   0.5000 0.1667 0.3000  plane waves:    9561
 k-point  69 :  -0.2500 0.1667 0.3000  plane waves:    9526
 k-point  70 :  -0.0000 0.3333 0.3000  plane waves:    9509
 k-point  71 :   0.2500 0.3333 0.3000  plane waves:    9543
 k-point  72 :   0.5000 0.3333 0.3000  plane waves:    9554
 k-point  73 :  -0.2500 0.3333 0.3000  plane waves:    9539
 k-point  74 :   0.0000 0.5000 0.3000  plane waves:    9523
 k-point  75 :   0.2500 0.5000 0.3000  plane waves:    9513
 k-point  76 :   0.5000 0.5000 0.3000  plane waves:    9533
 k-point  77 :  -0.2500 0.5000 0.3000  plane waves:    9530
 k-point  78 :   0.0000-0.3333 0.3000  plane waves:    9537
 k-point  79 :   0.2500-0.3333 0.3000  plane waves:    9543
 k-point  80 :   0.5000-0.3333 0.3000  plane waves:    9519
 k-point  81 :  -0.2500-0.3333 0.3000  plane waves:    9555
 k-point  82 :   0.0000-0.1667 0.3000  plane waves:    9563
 k-point  83 :   0.2500-0.1667 0.3000  plane waves:    9537
 k-point  84 :   0.5000-0.1667 0.3000  plane waves:    9535
 k-point  85 :  -0.2500-0.1667 0.3000  plane waves:    9534
 k-point  86 :   0.0000 0.0000 0.4000  plane waves:    9537
 k-point  87 :   0.2500 0.0000 0.4000  plane waves:    9542
 k-point  88 :   0.5000-0.0000 0.4000  plane waves:    9522
 k-point  89 :  -0.2500 0.0000 0.4000  plane waves:    9532
 k-point  90 :  -0.0000 0.1667 0.4000  plane waves:    9509
 k-point  91 :   0.2500 0.1667 0.4000  plane waves:    9529
 k-point  92 :   0.5000 0.1667 0.4000  plane waves:    9539
 k-point  93 :  -0.2500 0.1667 0.4000  plane waves:    9515
 k-point  94 :  -0.0000 0.3333 0.4000  plane waves:    9505
 k-point  95 :   0.2500 0.3333 0.4000  plane waves:    9515
 k-point  96 :   0.5000 0.3333 0.4000  plane waves:    9536
 k-point  97 :  -0.2500 0.3333 0.4000  plane waves:    9529
 k-point  98 :  -0.0000 0.5000 0.4000  plane waves:    9523
 k-point  99 :   0.2500 0.5000 0.4000  plane waves:    9525
 k-point 100 :   0.5000 0.5000 0.4000  plane waves:    9533
 k-point 101 :  -0.2500 0.5000 0.4000  plane waves:    9544
 k-point 102 :   0.0000-0.3333 0.4000  plane waves:    9532
 k-point 103 :   0.2500-0.3333 0.4000  plane waves:    9518
 k-point 104 :   0.5000-0.3333 0.4000  plane waves:    9528
 k-point 105 :  -0.2500-0.3333 0.4000  plane waves:    9535
 k-point 106 :  -0.0000-0.1667 0.4000  plane waves:    9534
 k-point 107 :   0.2500-0.1667 0.4000  plane waves:    9540
 k-point 108 :   0.5000-0.1667 0.4000  plane waves:    9559
 k-point 109 :  -0.2500-0.1667 0.4000  plane waves:    9507
 k-point 110 :   0.2500 0.0000 0.5000  plane waves:    9545
 k-point 111 :   0.5000 0.0000 0.5000  plane waves:    9522
 k-point 112 :  -0.0000 0.1667 0.5000  plane waves:    9529
 k-point 113 :   0.2500 0.1667 0.5000  plane waves:    9533
 k-point 114 :   0.5000 0.1667 0.5000  plane waves:    9546
 k-point 115 :  -0.2500 0.1667 0.5000  plane waves:    9539
 k-point 116 :  -0.0000 0.3333 0.5000  plane waves:    9530
 k-point 117 :   0.2500 0.3333 0.5000  plane waves:    9522
 k-point 118 :   0.5000 0.3333 0.5000  plane waves:    9526
 k-point 119 :  -0.2500 0.3333 0.5000  plane waves:    9527
 k-point 120 :  -0.0000 0.5000 0.5000  plane waves:    9538
 k-point 121 :   0.2500 0.5000 0.5000  plane waves:    9535

 maximum and minimum number of plane-waves per node :      1226     1170

 maximum number of plane-waves:      9603
 maximum index in each direction: 
   IXMAX=   24   IYMAX=   21   IZMAX=   12
   IXMIN=  -24   IYMIN=  -21   IZMIN=  -12


 real space projection operators:
  total allocation   :      14883.66 KBytes
  max/ min on nodes  :       1864.39       1854.99


 parallel 3D FFT for wavefunctions:
    minimum data exchange during FFTs selected (reduces bandwidth)
 parallel 3D FFT for charge:
    minimum data exchange during FFTs selected (reduces bandwidth)


 total amount of memory used by VASP MPI-rank0    68400. kBytes
=======================================================================

   base      :      30000. kBytes
   nonlr-proj:       7150. kBytes
   fftplans  :       3484. kBytes
   grid      :       6137. kBytes
   one-center:         24. kBytes
   wavefun   :      21605. kBytes
 
     INWAV:  cpu time      0.0001: real time      0.0001
 initial charge density was supplied:
 number of electron     119.9999994 magnetization 
 keeping initial charge density in first step


--------------------------------------------------------------------------------------------------------


 Maximum index for non-local projection operator         1585
 Maximum index for augmentation-charges         1534 (set IRDMAX)


--------------------------------------------------------------------------------------------------------


 First call to EWALD:  gamma=   0.269
 Maximum number of real-space cells 4x 4x 4
 Maximum number of reciprocal cells 5x 4x 3

    FEWALD:  cpu time      0.0015: real time      0.0015


--------------------------------------- Iteration      1(   1)  ---------------------------------------


    POTLOK:  cpu time      0.1536: real time      0.1880
    SETDIJ:  cpu time      0.2691: real time      0.2796
     EDDAV:  cpu time     16.2241: real time     16.4001
 BZINTS: Fermi energy:   18.571548;  120.000000 electrons
         Band energy: 0.284543E+03;  BLOECHL correction:   -0.081304
       DOS:  cpu time      0.1687: real time      0.1695
    --------------------------------------------
      LOOP:  cpu time     16.8155: real time     17.0372

 eigenvalue-minimisations  : 17424
 total energy-change (2. order) : 0.9217149E+03  (-0.6746875E+04)
 number of electron     119.9999994 magnetization 
 augmentation part      119.9999994 magnetization 

 Free energy of the ion-electron system (eV)
  ---------------------------------------------------
  alpha Z        PSCENC =       153.96831010
  Ewald energy   TEWEN  =     -5770.68021734
  -Hartree energ DENC   =     -3036.31373427
  -exchange      EXHF   =         0.00000000
  -V(xc)+E(xc)   XCENC  =       375.78644590
  PAW double counting   =     14658.04694200   -14557.82116383
  entropy T*S    EENTRO =         0.00000000
  eigenvalues    EBANDS =       284.54304500
  atomic energy  EATOM  =      8814.18532137
  Solvation  Ediel_sol  =         0.00000000
  ---------------------------------------------------
  free energy    TOTEN  =       921.71494892 eV

  energy without entropy =      921.71494892  energy(sigma->0) =      921.71494892


--------------------------------------------------------------------------------------------------------




--------------------------------------- Iteration      1(   2)  ---------------------------------------


     EDDAV:  cpu time     24.5957: real time     24.7689
 BZINTS: Fermi energy:    2.795912;  120.000000 electrons
         Band energy:-0.666468E+03;  BLOECHL correction:   -0.000000
       DOS:  cpu time      0.1415: real time      0.1423
    --------------------------------------------
      LOOP:  cpu time     24.7371: real time     24.9112

 eigenvalue-minimisations  : 21672
 total energy-change (2. order) :-0.9510108E+03  (-0.9288315E+03)
 number of electron     119.9999994 magnetization 
 augmentation part      119.9999994 magnetization 

 Free energy of the ion-electron system (eV)
  ---------------------------------------------------
  alpha Z        PSCENC =       153.96831010
  Ewald energy   TEWEN  =     -5770.68021734
  -Hartree energ DENC   =     -3036.31373427
  -exchange      EXHF   =         0.00000000
  -V(xc)+E(xc)   XCENC  =       375.78644590
  PAW double counting   =     14658.04694200   -14557.82116383
  entropy T*S    EENTRO =         0.00000000
  eigenvalues    EBANDS =      -666.46772780
  atomic energy  EATOM  =      8814.18532137
  Solvation  Ediel_sol  =         0.00000000
  ---------------------------------------------------
  free energy    TOTEN  =       -29.29582387 eV

  energy without entropy =      -29.29582387  energy(sigma->0) =      -29.29582387


--------------------------------------------------------------------------------------------------------




--------------------------------------- Iteration      1(   3)  ---------------------------------------


     EDDAV:  cpu time     18.3868: real time     18.5391
 BZINTS: Fermi energy:    0.938286;  120.000000 electrons
         Band energy:-0.739951E+03;  BLOECHL correction:   -0.000000
       DOS:  cpu time      0.2099: real time      0.2113
    --------------------------------------------
      LOOP:  cpu time     18.5967: real time     18.7504

 eigenvalue-minimisations  : 19376
 total energy-change (2. order) :-0.7348325E+02  (-0.7248002E+02)
 number of electron     119.9999994 magnetization 
 augmentation part      119.9999994 magnetization 

 Free energy of the ion-electron system (eV)
  ---------------------------------------------------
  alpha Z        PSCENC =       153.96831010
  Ewald energy   TEWEN  =     -5770.68021734
  -Hartree energ DENC   =     -3036.31373427
  -exchange      EXHF   =         0.00000000
  -V(xc)+E(xc)   XCENC  =       375.78644590
  PAW double counting   =     14658.04694200   -14557.82116383
  entropy T*S    EENTRO =         0.00000000
  eigenvalues    EBANDS =      -739.95097487
  atomic energy  EATOM  =      8814.18532137
  Solvation  Ediel_sol  =         0.00000000
  ---------------------------------------------------
  free energy    TOTEN  =      -102.77907094 eV

  energy without entropy =     -102.77907094  energy(sigma->0) =     -102.77907094


--------------------------------------------------------------------------------------------------------




--------------------------------------- Iteration      1(   4)  ---------------------------------------


     EDDAV:  cpu time     21.6370: real time     21.8127
 BZINTS: Fermi energy:    0.878907;  120.000000 electrons
         Band energy:-0.741411E+03;  BLOECHL correction:    0.000000
       DOS:  cpu time      0.2106: real time      0.2126
    --------------------------------------------
      LOOP:  cpu time     21.8477: real time     22.0253

 eigenvalue-minimisations  : 20352
 total energy-change (2. order) :-0.1460173E+01  (-0.1450086E+01)
 number of electron     119.9999994 magnetization 
 augmentation part      119.9999994 magnetization 

 Free energy of the ion-electron system (eV)
  ---------------------------------------------------
  alpha Z        PSCENC =       153.96831010
  Ewald energy   TEWEN  =     -5770.68021734
  -Hartree energ DENC   =     -3036.31373427
  -exchange      EXHF   =         0.00000000
  -V(xc)+E(xc)   XCENC  =       375.78644590
  PAW double counting   =     14658.04694200   -14557.82116383
  entropy T*S    EENTRO =         0.00000000
  eigenvalues    EBANDS =      -741.41114746
  atomic energy  EATOM  =      8814.18532137
  Solvation  Ediel_sol  =         0.00000000
  ---------------------------------------------------
  free energy    TOTEN  =      -104.23924354 eV

  energy without entropy =     -104.23924354  energy(sigma->0) =     -104.23924354


--------------------------------------------------------------------------------------------------------




--------------------------------------- Iteration      1(   5)  ---------------------------------------


     EDDAV:  cpu time     22.2103: real time     22.3832
 BZINTS: Fermi energy:    0.878411;  120.000000 electrons
         Band energy:-0.741440E+03;  BLOECHL correction:    0.000000
       DOS:  cpu time      0.2521: real time      0.2540
    --------------------------------------------
      LOOP:  cpu time     22.4624: real time     22.6372

 eigenvalue-minimisations  : 19560
 total energy-change (2. order) :-0.2910553E-01  (-0.2909466E-01)
 number of electron     119.9999994 magnetization 
 augmentation part      119.9999994 magnetization 

 Free energy of the ion-electron system (eV)
  ---------------------------------------------------
  alpha Z        PSCENC =       153.96831010
  Ewald energy   TEWEN  =     -5770.68021734
  -Hartree energ DENC   =     -3036.31373427
  -exchange      EXHF   =         0.00000000
  -V(xc)+E(xc)   XCENC  =       375.78644590
  PAW double counting   =     14658.04694200   -14557.82116383
  entropy T*S    EENTRO =         0.00000000
  eigenvalues    EBANDS =      -741.44025299
  atomic energy  EATOM  =      8814.18532137
  Solvation  Ediel_sol  =         0.00000000
  ---------------------------------------------------
  free energy    TOTEN  =      -104.26834906 eV

  energy without entropy =     -104.26834906  energy(sigma->0) =     -104.26834906


--------------------------------------------------------------------------------------------------------




[...]
      9     -17.3386      2.00000
     10     -17.3385      2.00000
     11     -17.1739      2.00000
     12     -17.1739      2.00000
     13     -16.4542      2.00000
     14     -16.4540      2.00000
     15      -9.2070      2.00000
     16      -9.2070      2.00000
     17      -8.1071      2.00000
     18      -8.1071      2.00000
     19      -4.9302      2.00000
     20      -4.9302      2.00000
     21      -4.8200      2.00000
     22      -4.8199      2.00000
     23      -3.8390      2.00000
     24      -3.8390      2.00000
     25      -3.6676      2.00000
     26      -3.6676      2.00000
     27      -3.4820      2.00000
     28      -3.4819      2.00000
     29      -2.6763      2.00000
     30      -2.6762      2.00000
     31      -2.4795      2.00000
     32      -2.4794      2.00000
     33      -1.8020      2.00000
     34      -1.8020      2.00000
     35      -1.6323      2.00000
     36      -1.6323      2.00000
     37      -1.4630      2.00000
     38      -1.4630      2.00000
     39      -1.3342      2.00000
     40      -1.3342      2.00000
     41      -1.3275      2.00000
     42      -1.3275      2.00000
     43      -0.9550      2.00000
     44      -0.9550      2.00000
     45      -0.8637      2.00000
     46      -0.8637      2.00000
     47      -0.8117      2.00000
     48      -0.8116      2.00000
     49      -0.4826      2.00000
     50      -0.4826      2.00000
     51      -0.2517      2.00000
     52      -0.2517      2.00000
     53      -0.2497      2.00000
     54      -0.2497      2.00000
     55       0.3561      2.00000
     56       0.3561      2.00000
     57       0.5189      2.00000
     58       0.5190      2.00000
     59       0.6960      2.00000
     60       0.6960      2.00000
     61       5.9243      0.00000
     62       5.9244      0.00000
     63       6.1556      0.00000
     64       6.1556      0.00000
     65       6.6427      0.00000
     66       6.6427      0.00000
     67       6.9016      0.00000
     68       6.9016      0.00000
     69       7.3628      0.00000
     70       7.3628      0.00000
     71       8.5928      0.00000
     72       8.5931      0.00000

 k-point   121 :       0.2500    0.5000    0.5000
  band No.  band energies     occupation 
      1     -20.6415      2.00000
      2     -20.5963      2.00000
      3     -20.5495      2.00000
      4     -20.5040      2.00000
      5     -20.4213      2.00000
      6     -20.3758      2.00000
      7     -20.3058      2.00000
      8     -20.2878      2.00000
      9     -17.4695      2.00000
     10     -17.3040      2.00000
     11     -17.2127      2.00000
     12     -17.0692      2.00000
     13     -16.4872      2.00000
     14     -16.4274      2.00000
     15      -9.4844      2.00000
     16      -9.1376      2.00000
     17      -8.3299      2.00000
     18      -7.8791      2.00000
     19      -5.1361      2.00000
     20      -4.9989      2.00000
     21      -4.8432      2.00000
     22      -4.6382      2.00000
     23      -4.0672      2.00000
     24      -3.9046      2.00000
     25      -3.8770      2.00000
     26      -3.6716      2.00000
     27      -3.3668      2.00000
     28      -3.2040      2.00000
     29      -2.9030      2.00000
     30      -2.6150      2.00000
     31      -2.3990      2.00000
     32      -2.0825      2.00000
     33      -1.9961      2.00000
     34      -1.7902      2.00000
     35      -1.6868      2.00000
     36      -1.5604      2.00000
     37      -1.4667      2.00000
     38      -1.4249      2.00000
     39      -1.3609      2.00000
     40      -1.2808      2.00000
     41      -1.2691      2.00000
     42      -1.2035      2.00000
     43      -1.0226      2.00000
     44      -0.9319      2.00000
     45      -0.9031      2.00000
     46      -0.8549      2.00000
     47      -0.7892      2.00000
     48      -0.7085      2.00000
     49      -0.4858      2.00000
     50      -0.4382      2.00000
     51      -0.2815      2.00000
     52      -0.1873      2.00000
     53      -0.1503      2.00000
     54      -0.0710      2.00000
     55       0.3198      2.00000
     56       0.3737      2.00000
     57       0.5728      2.00000
     58       0.6328      2.00000
     59       0.6885      2.00000
     60       0.7688      2.00000
     61       5.7631      0.00000
     62       5.9518      0.00000
     63       6.0679      0.00000
     64       6.1241      0.00000
     65       6.4248      0.00000
     66       6.5302      0.00000
     67       6.8632      0.00000
     68       6.9157      0.00000
     69       7.2218      0.00000
     70       7.6243      0.00000
     71       8.3960      0.00000
     72       8.6637      0.00000


--------------------------------------------------------------------------------------------------------


 soft charge-density along one line, spin component           1
         0         1         2         3         4         5         6         7         8         9
 total charge-density along one line
 
 pseudopotential strength for first ion, spin component:           1
 53.540  58.250   0.075   0.126   0.021   0.110   0.183   0.031
 58.250  63.379   0.082   0.137   0.023   0.119   0.199   0.033
  0.075   0.082  13.118  -0.010  -0.003  18.912  -0.014  -0.004
  0.126   0.137  -0.010  13.108  -0.002  -0.014  18.899  -0.003
  0.021   0.023  -0.003  -0.002  13.121  -0.004  -0.003  18.916
  0.110   0.119  18.912  -0.014  -0.004  27.276  -0.020  -0.006
  0.183   0.199  -0.014  18.899  -0.003  -0.020  27.256  -0.004
  0.031   0.033  -0.004  -0.003  18.916  -0.006  -0.004  27.281
 -0.004  -0.005   0.003   0.000   0.009   0.004   0.000   0.013
 -0.014  -0.015   0.019   0.014   0.000   0.028   0.020   0.000
 -0.009  -0.010  -0.004   0.022  -0.000  -0.006   0.033  -0.000
 -0.003  -0.003   0.000   0.005   0.015   0.000   0.007   0.022
  0.002   0.002  -0.011  -0.002   0.002  -0.017  -0.003   0.003
 total augmentation occupancy for first ion, spin component:           1
  2.000   0.000   0.000   0.000   0.000   0.000   0.000   0.000   0.000   0.000   0.000   0.000   0.000
  0.000   0.000   0.000   0.000   0.000   0.000   0.000   0.000   0.000   0.000   0.000   0.000   0.000
  0.000   0.000   1.333   0.000   0.000   0.000   0.000   0.000   0.000   0.000   0.000   0.000   0.000
  0.000   0.000   0.000   1.333   0.000   0.000   0.000   0.000   0.000   0.000   0.000   0.000   0.000
  0.000   0.000   0.000   0.000   1.333   0.000   0.000   0.000   0.000   0.000   0.000   0.000   0.000
  0.000   0.000   0.000   0.000   0.000   0.000   0.000   0.000   0.000   0.000   0.000   0.000   0.000
  0.000   0.000   0.000   0.000   0.000   0.000   0.000   0.000   0.000   0.000   0.000   0.000   0.000
  0.000   0.000   0.000   0.000   0.000   0.000   0.000   0.000   0.000   0.000   0.000   0.000   0.000
  0.000   0.000   0.000   0.000   0.000   0.000   0.000   0.000   0.000   0.000   0.000   0.000   0.000
  0.000   0.000   0.000   0.000   0.000   0.000   0.000   0.000   0.000   0.000   0.000   0.000   0.000
  0.000   0.000   0.000   0.000   0.000   0.000   0.000   0.000   0.000   0.000   0.000   0.000   0.000
  0.000   0.000   0.000   0.000   0.000   0.000   0.000   0.000   0.000   0.000   0.000   0.000   0.000
  0.000   0.000   0.000   0.000   0.000   0.000   0.000   0.000   0.000   0.000   0.000   0.000   0.000


------------------------ aborting loop because EDIFF is reached ----------------------------------------





 total charge

# of ion       s       p       d       tot
------------------------------------------
    1        1.468   1.386   0.237   3.091
    2        1.468   1.386   0.237   3.091
    3        1.468   1.386   0.237   3.091
    4        1.468   1.386   0.237   3.091
    5        0.558   0.121   0.000   0.680
    6        0.558   0.121   0.000   0.680
    7        0.558   0.121   0.000   0.680
    8        0.558   0.121   0.000   0.680
    9        1.585   3.450   0.000   5.035
   10        1.585   3.450   0.000   5.035
   11        1.568   3.550   0.000   5.118
   12        1.568   3.550   0.000   5.118
   13        1.568   3.550   0.000   5.118
   14        1.568   3.550   0.000   5.118
   15        1.744   4.332   0.000   6.076
   16        1.744   4.332   0.000   6.076
   17        1.744   4.332   0.000   6.076
   18        1.744   4.332   0.000   6.076
   19        1.740   4.347   0.000   6.087
   20        1.740   4.347   0.000   6.087
   21        1.740   4.347   0.000   6.087
   22        1.740   4.347   0.000   6.087
--------------------------------------------------
tot         31.484  61.845   0.949  94.278
 
    CHARGE:  cpu time      1.9273: real time      2.8642
    FORLOC:  cpu time      0.0173: real time      0.0175
    FORNL :  cpu time      6.5016: real time      6.5696
    STRESS:  cpu time     18.1232: real time     18.2494
    FORCOR:  cpu time      0.0398: real time      0.0401
    FORHAR:  cpu time      0.0375: real time      0.0377
    OFIELD:  cpu time      0.0004: real time      0.0004

 ---------------------------------------------------------------------------------------------

         DFTD3 V3.0 Rev 1        
 IVDW         = 12
 DF pbe       
 parameters
 VDW_S6       =    1.0000
 VDW_S8       =    0.7875
 VDW_A1       =    0.4289
 VDW_A2       =    4.4407
 k1-k3        =   16.0000    1.3333   -4.0000
 VDW_RADIUS   =   50.2022 A
 VDW_CNRADIUS =   21.1671 A
 Edisp (eV)   -2.56907

 E6    (eV) :    -1.6812
 E8    (eV) :    -0.8879
 % E8        : 34.56
    FORVDW:  cpu time      0.4262: real time      0.4286

  FORCE on cell =-STRESS in cart. coord.  units (eV):
  Direction    XX          YY          ZZ          XY          YZ          ZX
  --------------------------------------------------------------------------------------
  Alpha Z   153.96831   153.96831   153.96831
  Ewald   -1998.04485 -1969.22922 -1803.42375    -6.49546   -80.45136    17.29932
  Hartree  1040.41596   980.48726  1015.42792    13.51050   -18.51962     3.98215
  E(xc)    -609.66235  -608.67647  -607.62183    -0.22233    -0.49253     0.10588
  Local    -962.87388  -912.83226 -1093.48873   -11.28332    89.58926   -19.26456
  n-local   -50.56904   -57.80659   -61.58190     1.62413     1.68822    -0.36929
  augment    83.46675    78.64228    78.92576     1.08736    -0.25331     0.05492
  Kinetic  2346.21541  2338.45757  2320.67101     1.74907     8.50684    -1.82963
  Fock        0.00000     0.00000     0.00000     0.00000     0.00000     0.00000
  vdW        -2.86564    -2.95826    -2.80549     0.02088    -0.07696     0.01655
  -------------------------------------------------------------------------------------
  Total       0.04739     0.05559     0.07162    -0.00185    -0.00765     0.00164
  in kB       0.26567     0.31162     0.40146    -0.01036    -0.04287     0.00922
  external pressure =        0.33 kB  Pullay stress =        0.00 kB


 VOLUME and BASIS-vectors are now :
 -----------------------------------------------------------------------------
  energy-cutoff  :      600.00
  volume of cell :      285.83
      direct lattice vectors                 reciprocal lattice vectors
    10.701328983  0.050638681  5.307409100     0.094560832 -0.212665659 -0.000218085
     9.777607225  4.346636529  0.909522123    -0.001209477  0.232737987  0.000218085
     0.001251200 -0.005819017  6.216931222    -0.080549866  0.147504174  0.161005338

  length of vectors
    11.945275117 10.738811976  6.216934071     0.232741232  0.232741232  0.232741232


 FORCES acting on ions
    electron-ion (+dipol)            ewald-force                    non-local-force                 convergence-correction
 -----------------------------------------------------------------------------------------------
   0.260E+01 0.545E+02 0.107E+03   -.453E+01 -.618E+02 -.119E+03   0.192E+01 0.730E+01 0.123E+02   -.116E-02 -.461E-03 -.515E-04
   -.374E+02 0.107E+03 -.381E+02   0.436E+02 -.120E+03 0.420E+02   -.617E+01 0.125E+02 -.397E+01   0.191E-02 0.118E-03 -.434E-03
   -.248E+02 0.486E+02 0.107E+03   0.295E+02 -.545E+02 -.119E+03   -.475E+01 0.586E+01 0.123E+02   0.125E-02 -.269E-03 -.143E-03
   -.100E+02 0.113E+03 -.381E+02   0.950E+01 -.127E+03 0.420E+02   0.498E+00 0.139E+02 -.397E+01   -.185E-02 -.520E-03 -.409E-04
   0.288E+02 -.336E+02 0.192E+02   -.328E+02 0.390E+02 -.222E+02   0.397E+01 -.538E+01 0.299E+01   -.265E-03 0.347E-03 -.240E-04
   -.177E+02 -.180E+02 -.411E+02   0.200E+02 0.207E+02 0.475E+02   -.223E+01 -.272E+01 -.643E+01   0.171E-03 0.134E-03 0.759E-04
   -.125E+02 -.425E+02 0.192E+02   0.139E+02 0.490E+02 -.222E+02   -.141E+01 -.653E+01 0.299E+01   0.850E-04 0.343E-03 -.733E-04
   0.236E+02 -.913E+01 -.411E+02   -.267E+02 0.107E+02 0.475E+02   0.315E+01 -.156E+01 -.643E+01   -.318E-03 0.115E-03 0.187E-03
   0.150E+02 -.699E+02 -.296E+02   -.208E+02 0.965E+02 0.409E+02   0.573E+01 -.267E+02 -.113E+02   -.458E-03 0.751E-03 0.172E-04
   0.150E+02 -.699E+02 -.296E+02   -.208E+02 0.965E+02 0.409E+02   0.573E+01 -.267E+02 -.113E+02   0.114E-03 0.405E-03 0.300E-03
   0.518E+02 0.505E+02 -.329E+02   -.594E+02 -.730E+02 0.562E+02   0.760E+01 0.225E+02 -.233E+02   -.277E-02 0.246E-02 0.407E-03
   -.608E+02 -.903E+01 0.505E+02   0.722E+02 0.136E+02 -.814E+02   -.114E+02 -.460E+01 0.309E+02   0.155E-02 0.310E-02 0.173E-02
   -.680E+02 0.248E+02 -.329E+02   0.842E+02 -.422E+02 0.562E+02   -.162E+02 0.174E+02 -.233E+02   0.156E-02 0.330E-02 0.761E-03
   0.591E+02 0.167E+02 0.505E+02   -.714E+02 -.173E+02 -.814E+02   0.123E+02 0.512E+00 0.309E+02   -.254E-02 0.202E-02 0.197E-02
   -.136E+02 -.479E+02 -.832E+02   0.128E+02 0.631E+02 0.105E+03   0.755E+00 -.152E+02 -.213E+02   -.439E-02 -.367E-02 0.374E-02
   0.417E+02 -.830E+02 0.277E+02   -.495E+02 0.108E+03 -.321E+02   0.780E+01 -.246E+02 0.443E+01   0.579E-02 0.231E-02 -.500E-02
   0.321E+02 -.381E+02 -.832E+02   -.376E+02 0.522E+02 0.105E+03   0.556E+01 -.142E+02 -.213E+02   0.555E-02 -.180E-02 0.422E-02
   -.390E+01 -.929E+02 0.277E+02   0.917E+00 0.118E+03 -.321E+02   0.300E+01 -.256E+02 0.443E+01   -.615E-02 -.390E-03 -.439E-02
   0.122E+02 0.512E+02 -.149E+02   -.118E+02 -.654E+02 0.239E+02   -.420E+00 0.142E+02 -.907E+01   -.181E-02 0.452E-03 -.507E-02
   -.271E+02 0.177E+02 0.441E+02   0.303E+02 -.206E+02 -.604E+02   -.325E+01 0.285E+01 0.163E+02   -.135E-01 -.251E-02 -.388E-02
   -.322E+02 0.416E+02 -.149E+02   0.377E+02 -.547E+02 0.239E+02   -.546E+01 0.131E+02 -.907E+01   0.146E-02 0.101E-02 0.426E-02
   0.174E+02 0.273E+02 0.441E+02   -.192E+02 -.312E+02 -.604E+02   0.179E+01 0.393E+01 0.163E+02   0.134E-01 0.322E-02 0.556E-02
 -----------------------------------------------------------------------------------------------
   -.851E+01 0.396E+02 0.168E+02   0.114E-12 0.604E-13 -.213E-13   0.852E+01 -.396E+02 -.168E+02   -.242E-02 0.105E-01 0.414E-02
 
 
 POSITION                                       TOTAL-FORCE (eV/Angst)
 -----------------------------------------------------------------------------------
     11.42687      1.81636      4.56928        -0.002168     -0.001016     -0.000539
      9.52093      0.40031      6.94246         0.002441     -0.000254      0.000001
     14.43419      2.45994      7.67775         0.002394     -0.000035     -0.000539
      6.05240      1.90181      4.74352        -0.002121     -0.001235      0.000001
     12.16464      3.35712      8.03958        -0.003140     -0.003713     -0.002836
     18.48358      3.56519     10.75331         0.004627     -0.003204     -0.000097
     13.12706      3.56711      4.93112         0.004389     -0.002094     -0.002836
      7.28107      1.15948      7.64484        -0.002901     -0.004823     -0.000097
     15.39966      3.10978      9.24746        -0.000887      0.004127      0.001750
     10.27962      2.01192      6.13900        -0.000887      0.004127      0.001750
     12.68432      2.61298      8.46563        -0.003819     -0.003061      0.003296
      7.49942      3.15717      4.55280         0.004115      0.001687     -0.003879
     12.95918      2.67512      5.35716         0.004740     -0.001221      0.003296
      7.68580      0.94994      6.75175        -0.004444     -0.000154     -0.003879
      9.54471      1.53412      8.58084        -0.000852      0.000916     -0.000966
     10.76354      3.65703      4.19210         0.000610      0.000209      0.001443
     16.26476      2.98211      5.47237         0.000400      0.001185     -0.000966
      4.50470      0.06395      6.39103        -0.000642     -0.000060      0.001443
      3.72981      0.67692      3.48798         0.001240      0.003394     -0.001145
      6.49666      1.58226      2.75586        -0.002167      0.000916      0.002972
      1.44165      0.18188      6.59644        -0.002525      0.002584     -0.001145
     19.02489      4.27303      5.86432         0.001599      0.001725      0.002972
 -----------------------------------------------------------------------------------
    total drift:                                0.000102     -0.009141     -0.012794


--------------------------------------------------------------------------------------------------------



  FREE ENERGIE OF THE ION-ELECTRON SYSTEM (eV)
  ---------------------------------------------------
  free  energy   TOTEN  =      -106.83841205 eV

  energy  without entropy=     -106.83841205  energy(sigma->0) =     -106.83841205
 


--------------------------------------------------------------------------------------------------------


    POTLOK:  cpu time      0.1552: real time      0.1575


--------------------------------------------------------------------------------------------------------


     LOOP+:  cpu time    193.0208: real time    195.5792
    4ORBIT:  cpu time      0.0000: real time      0.0000



 total charge

# of ion       s       p       d       tot
------------------------------------------
    1        1.468   1.386   0.237   3.091
    2        1.468   1.386   0.237   3.091
    3        1.468   1.386   0.237   3.091
    4        1.468   1.386   0.237   3.091
    5        0.558   0.121   0.000   0.680
    6        0.558   0.121   0.000   0.680
    7        0.558   0.121   0.000   0.680
    8        0.558   0.121   0.000   0.680
    9        1.585   3.450   0.000   5.035
   10        1.585   3.450   0.000   5.035
   11        1.568   3.550   0.000   5.118
   12        1.568   3.550   0.000   5.118
   13        1.568   3.550   0.000   5.118
   14        1.568   3.550   0.000   5.118
   15        1.744   4.332   0.000   6.076
   16        1.744   4.332   0.000   6.076
   17        1.744   4.332   0.000   6.076
   18        1.744   4.332   0.000   6.076
   19        1.740   4.347   0.000   6.087
   20        1.740   4.347   0.000   6.087
   21        1.740   4.347   0.000   6.087
   22        1.740   4.347   0.000   6.087
--------------------------------------------------
tot         31.484  61.845   0.949  94.278
 
 BZINTS: Fermi energy:    0.878341;  120.000000 electrons
         Band energy:-0.741441E+03;  BLOECHL correction:    0.000000

 total amount of memory used by VASP MPI-rank0    68400. kBytes
=======================================================================

   base      :      30000. kBytes
   nonlr-proj:       7150. kBytes
   fftplans  :       3484. kBytes
   grid      :       6137. kBytes
   one-center:         24. kBytes
   wavefun   :      21605. kBytes
 
  
  
 General timing and accounting informations for this job:
 ========================================================
  
                  Total CPU time used (sec):      339.113
                            User time (sec):      336.648
                          System time (sec):        2.465
                         Elapsed time (sec):      347.060
  
                   Maximum memory used (kb):      341252.
                   Average memory used (kb):          N/A
  
                          Minor page faults:       166515
                          Major page faults:           42
                 Voluntary context switches:         6309
