unknown system                          
           1
    10.701329    0.050639    5.307409
     9.777607    4.346637    0.909522
     0.001251   -0.005819    6.216931
   Te   H    O    F 
     4     4     6     8
Direct configuration=     1
   0.69326158  0.40991086  0.08316521
   0.81366136  0.08316521  0.40991086
   0.84008914  0.55673842  0.43633864
   0.16683479  0.43633864  0.55673842
   0.43460061  0.76837060  0.80974477
   0.98728403  0.80974477  0.76837060
   0.48162940  0.81539939  0.26271597
   0.44025523  0.26271597  0.81539939
   0.79284378  0.70715622  0.70715622
   0.54284378  0.45715622  0.45715622
   0.64190259  0.59464434  0.72671638
   0.03673669  0.72671638  0.59464434
   0.65535566  0.60809741  0.21326331
   0.52328362  0.21326331  0.60809741
   0.57442917  0.34737551  0.83902621
   0.23917012  0.83902621  0.34737551
   0.90262449  0.67557083  0.01082988
   0.41097379  0.01082988  0.67557083
   0.20797557  0.15379416  0.36099575
   0.27723552  0.36099575  0.15379416
   0.09620584  0.04202443  0.97276448
   0.88900425  0.97276448  0.04202443
