Automatically generated mesh
      11
Reciprocal lattice
    0.00000000000000    0.00000000000000    0.00000000000000             1
    0.25000000000000    0.00000000000000    0.00000000000000             6
    0.50000000000000    0.00000000000000    0.00000000000000             3
    0.25000000000000    0.25000000000000    0.00000000000000            12
    0.50000000000000    0.25000000000000    0.00000000000000             6
   -0.25000000000000    0.50000000000000    0.00000000000000             6
    0.50000000000000    0.50000000000000    0.00000000000000             3
    0.25000000000000    0.25000000000000    0.25000000000000             8
    0.50000000000000    0.25000000000000    0.25000000000000            12
    0.50000000000000    0.50000000000000    0.25000000000000             6
    0.50000000000000    0.50000000000000    0.50000000000000             1
Tetrahedra
        45    0.00260416666667
        12         1         2         2         4
        12         2         2         4         4
        12         2         4         4         8
         6         2         3         4         5
         6         2         4         4         5
         6         4         4         5         8
        12         3         4         5         6
        24         4         5         6         9
        12         4         5         8         9
         6         2         3         4         6
         6         2         4         4         6
         6         4         4         6         8
        12         4         6         8         9
         6         4         5         7         8
         6         4         6         7         8
         6         6         7         8         9
         6         5         7         8         9
        12         7         8         9        10
        12         5         6         7         9
         6         6         7         9        10
         6         6         8         9         9
         6         6         9         9        10
        12         2         3         4         8
         6         3         4         6         8
         6         3         6         8         9
         6         3         4         5         8
         6         3         5         8         9
         6         5         7         9        10
         6         5         9         9        10
         6         5         8         9         9
         6         4         6         7        10
         6         4         5         7        10
         6         4         5         9        10
         6         4         6         9        10
        12         4         8         9        10
         6         2         3         6         9
         6         2         4         6         9
        12         2         4         8         9
         6         2         3         5         9
         6         2         4         5         9
        12         1         2         4         8
        12         8         9         9        10
        12         9         9        10        10
        12         9        10        10        11
        12         8         9        10        11
