       N       E                     dE             d eps       ncg     rms          rms(c)
DAV:   1     0.309347873871E+04    0.30935E+04   -0.21846E+05  5992   0.163E+03
DAV:   2    -0.625965693225E+02   -0.31561E+04   -0.30219E+04  7496   0.284E+02
DAV:   3    -0.440767308063E+03   -0.37817E+03   -0.37062E+03  6952   0.104E+02
DAV:   4    -0.457807110752E+03   -0.17040E+02   -0.16922E+02  8416   0.202E+01
DAV:   5    -0.458247913676E+03   -0.44080E+00   -0.44000E+00  7448   0.331E+00
RMM:   6    -0.458260870173E+03   -0.12956E-01   -0.12956E-01  6286   0.615E-01
RMM:   7    -0.458268306540E+03   -0.74364E-02   -0.74218E-02  9145   0.252E-01
RMM:   8    -0.458268977292E+03   -0.67075E-03   -0.73502E-03  7599   0.778E-02
RMM:   9    -0.458269089775E+03   -0.11248E-03   -0.11860E-03  9017   0.272E-02
RMM:  10    -0.458269106747E+03   -0.16972E-04   -0.18010E-04  6371   0.101E-02
RMM:  11    -0.458269109558E+03   -0.28114E-05   -0.30070E-05  6197   0.375E-03
RMM:  12    -0.458269110130E+03   -0.57209E-06   -0.60360E-06  4868   0.169E-03
   1 F= -.47779631E+03 E0= -.47779631E+03  d E =0.000000E+00
