 vasp.6.3.0 20Jan22 (build Jan 28 2022 00:43:23) complex                        
  
 executed on             LinuxIFC date 2025.07.23  13:52:48
 running   64 mpi-ranks, with    1 threads/rank
 distrk:  each k-point on   64 cores,    1 groups
 distr:  one band on NCORE=   8 cores,    8 groups


--------------------------------------------------------------------------------------------------------


 INCAR:
   ALGO = Fast
   ICHARG = 11
   LORBIT = 11
   NEDOS = 4000
   ENCUT = 600
   ISMEAR = -5
   EDIFF = 1.0E-6
   PREC = Accurate
   NELM = 200
   NELMIN = 5
   MAGMOM = 80*0.6
   ISPIN = 1
   LMAXMIX = 6
   LASPH = True
   IVDW = 12
   LWAVE = .FALSE.
   LCHARG = .FALSE.
   LREAL = Auto
   NPAR = 8

 POTCAR:    PAW_PBE Bi 08Apr2002                  
 POTCAR:    PAW_PBE O 08Apr2002                   
 POTCAR:    PAW_PBE Bi 08Apr2002                  
   VRHFIN =Bi:                                                                                      
   LEXCH  = PE                                                                                      
   EATOM  =   150.8133 eV,   11.0845 Ry                                                             
                                                                                                    
   TITEL  = PAW_PBE Bi 08Apr2002                                                                    
   LULTRA =        F    use ultrasoft PP ?                                                          
   IUNSCR =        1    unscreen: 0-lin 1-nonlin 2-no                                               
   RPACOR =    2.200    partial core radius                                                         
   POMASS =  208.980; ZVAL   =    5.000    mass and valenz                                          
   RCORE  =    3.000    outmost cutoff radius                                                       
   RWIGS  =    3.090; RWIGS  =    1.635    wigner-seitz radius (au A)                               
   ENMAX  =  105.037; ENMIN  =   78.777 eV                                                          
   ICORE  =        3    local potential                                                             
   LCOR   =        T    correct aug charges                                                         
   LPAW   =        T    paw PP                                                                      
   EAUG   =  265.427                                                                                
   DEXC   =    0.000                                                                                
   RMAX   =    3.067    core radius for proj-oper                                                   
   RAUG   =    1.300    factor for augmentation sphere                                              
   RDEP   =    3.012    radius for radial grids                                                     
   RDEPT  =    2.604    core radius for aug-charge                                                  
                                                                                                    
   Atomic configuration                                                                             
   17 entries                                                                                       
     n  l   j            E        occ.                                                              
     1  0  0.50    -90639.6582   2.0000                                                             
     2  0  0.50    -16282.4667   2.0000                                                             
     2  1  1.50    -13922.8287   6.0000                                                             
     3  0  0.50     -3930.4763   2.0000                                                             
     3  1  1.50     -3256.7013   6.0000                                                             
     3  2  2.50     -2581.6169  10.0000                                                             
     4  0  0.50      -902.2614   2.0000                                                             
     4  1  1.50      -681.5915   6.0000                                                             
     4  2  2.50      -429.8249  10.0000                                                             
     4  3  3.50      -152.6004  14.0000                                                             
     5  0  0.50      -157.7156   2.0000                                                             
     5  1  1.50       -95.8054   6.0000                                                             
     5  2  2.50       -27.0806  10.0000                                                             
     6  0  0.50       -14.4732   2.0000                                                             
     6  1  1.50        -4.5702   3.0000                                                             
     6  2  2.50        -2.7212   0.0000                                                             
     5  3  2.50        -2.7212   0.0000                                                             
   Description                                                                                      
     l       E           TYP  RCUT    TYP  RCUT                                                     
     0    -14.4732299     23  3.000                                                                 
     0    -12.2452434     23  3.000                                                                 
     1     -4.5701666     23  3.000                                                                 
     1    -13.6058260     23  3.000                                                                 
     2     -2.7211652     23  3.000                                                                 
     3     -1.3605826      7  3.000                                                                 
  local pseudopotential read in
  partial core-charges read in
  partial kinetic energy density read in
  kinetic energy density of atom read in
  atomic valenz-charges read in
  non local Contribution for L=           0  read in
    real space projection operators read in
  non local Contribution for L=           0  read in
    real space projection operators read in
  non local Contribution for L=           1  read in
    real space projection operators read in
  non local Contribution for L=           1  read in
    real space projection operators read in
  non local Contribution for L=           2  read in
    real space projection operators read in
    PAW grid and wavefunctions read in
 
   number of l-projection  operators is LMAX  =           5
   number of lm-projection operators is LMMAX =          13
 
 POTCAR:    PAW_PBE O 08Apr2002                   
   VRHFIN =O: s2p4                                                                                  
   LEXCH  = PE                                                                                      
   EATOM  =   432.3788 eV,   31.7789 Ry                                                             
                                                                                                    
   TITEL  = PAW_PBE O 08Apr2002                                                                     
   LULTRA =        F    use ultrasoft PP ?                                                          
   IUNSCR =        1    unscreen: 0-lin 1-nonlin 2-no                                               
   RPACOR =    1.200    partial core radius                                                         
   POMASS =   16.000; ZVAL   =    6.000    mass and valenz                                          
   RCORE  =    1.520    outmost cutoff radius                                                       
   RWIGS  =    1.550; RWIGS  =    0.820    wigner-seitz radius (au A)                               
   ENMAX  =  400.000; ENMIN  =  300.000 eV                                                          
   ICORE  =        2    local potential                                                             
   LCOR   =        T    correct aug charges                                                         
   LPAW   =        T    paw PP                                                                      
   EAUG   =  605.392                                                                                
   DEXC   =    0.000                                                                                
   RMAX   =    1.553    core radius for proj-oper                                                   
   RAUG   =    1.300    factor for augmentation sphere                                              
   RDEP   =    1.550    radius for radial grids                                                     
   RDEPT  =    1.329    core radius for aug-charge                                                  
                                                                                                    
   Atomic configuration                                                                             
    4 entries                                                                                       
     n  l   j            E        occ.                                                              
     1  0  0.50      -514.6923   2.0000                                                             
     2  0  0.50       -23.9615   2.0000                                                             
     2  1  0.50        -9.0305   4.0000                                                             
     3  2  1.50        -9.5241   0.0000                                                             
   Description                                                                                      
     l       E           TYP  RCUT    TYP  RCUT                                                     
     0    -23.9615318     23  1.200                                                                 
     0     -9.5240782     23  1.200                                                                 
     1     -9.0304911     23  1.520                                                                 
     1      8.1634956     23  1.520                                                                 
     2     -9.5240782      7  1.500                                                                 
  local pseudopotential read in
  partial core-charges read in
  partial kinetic energy density read in
  kinetic energy density of atom read in
  atomic valenz-charges read in
  non local Contribution for L=           0  read in
    real space projection operators read in
  non local Contribution for L=           0  read in
    real space projection operators read in
  non local Contribution for L=           1  read in
    real space projection operators read in
  non local Contribution for L=           1  read in
    real space projection operators read in
    PAW grid and wavefunctions read in
 
   number of l-projection  operators is LMAX  =           4
   number of lm-projection operators is LMMAX =           8
 
 Optimization of the real space projectors (new method)

 maximal supplied QI-value         = 12.47
 optimisation between [QCUT,QGAM] = [ 12.47, 25.07] = [ 43.56,175.99] Ry 
 Optimized for a Real-space Cutoff    1.61 Angstroem

   l    n(q)    QCUT    max X(q) W(low)/X(q) W(high)/X(q)  e(spline) 
   0     12    12.472    93.365    0.49E-04    0.32E-04    0.37E-06
   0     12    12.472    75.373    0.52E-04    0.35E-04    0.40E-06
   1     12    12.472    32.978    0.22E-03    0.76E-04    0.30E-05
   1     12    12.472    35.433    0.25E-03    0.84E-04    0.33E-05
   2     11    12.472     8.108    0.40E-04    0.72E-04    0.26E-06
 WARNING: PSMAXN for non-local potential too small
          PSMAXN should be >   12.5490833729506       NTYP=           1
 Optimization of the real space projectors (new method)

 maximal supplied QI-value         = 24.76
 optimisation between [QCUT,QGAM] = [ 12.38, 25.00] = [ 42.90,175.06] Ry 
 Optimized for a Real-space Cutoff    1.16 Angstroem

   l    n(q)    QCUT    max X(q) W(low)/X(q) W(high)/X(q)  e(spline) 
   0      9    12.378    20.381    0.16E-03    0.67E-05    0.31E-06
   0      9    12.378    15.268    0.17E-03    0.81E-05    0.33E-06
   1      8    12.378     5.964    0.20E-03    0.16E-03    0.30E-06
   1      8    12.378     5.382    0.18E-03    0.14E-03    0.26E-06
  PAW_PBE Bi 08Apr2002                  :
 energy of atom  1       EATOM= -150.8133
 kinetic energy error for atom=    0.0000 (will be added to EATOM!!)
  PAW_PBE O 08Apr2002                   :
 energy of atom  2       EATOM= -432.3788
 kinetic energy error for atom=    0.0168 (will be added to EATOM!!)
 
 
 POSCAR: Bi32 O48
  positions in direct lattice
  velocities in cartesian coordinates
 exchange correlation table for  LEXCH =        8
   RHO(1)=    0.500       N(1)  =     2000
   RHO(2)=  100.500       N(2)  =     4000
 


--------------------------------------------------------------------------------------------------------


 ion  position               nearest neighbor table
   1  0.248  0.752  0.252-  63 2.21  66 2.21  60 2.21  54 2.67  51 2.67  48 2.67  11 3.75  16 3.75
                            17 3.75  24 3.83  27 3.83  30 3.83
   2  0.752  0.252  0.248-  59 2.21  62 2.21  68 2.21  50 2.67  47 2.67  56 2.67  19 3.75  13 3.75
                            12 3.75  32 3.83  26 3.83  23 3.83
   3  0.252  0.248  0.752-  58 2.21  67 2.21  64 2.21  55 2.67  46 2.67  52 2.67   9 3.75  15 3.75
                            20 3.75  22 3.83  28 3.83  31 3.83
   4  0.748  0.748  0.748-  57 2.21  61 2.21  65 2.21  45 2.67  49 2.67  53 2.67  18 3.75  14 3.75
                            10 3.75  29 3.83  25 3.83  21 3.83
   5  0.752  0.248  0.748-  75 2.21  78 2.21  72 2.21  42 2.67  39 2.67  36 2.67  23 3.75  28 3.75
                            29 3.75  12 3.83  15 3.83  18 3.83
   6  0.248  0.748  0.752-  71 2.21  74 2.21  80 2.21  38 2.67  35 2.67  44 2.67  31 3.75  25 3.75
                            24 3.75  20 3.83  11 3.83  14 3.83
   7  0.748  0.752  0.248-  70 2.21  79 2.21  76 2.21  43 2.67  34 2.67  40 2.67  21 3.75  27 3.75
                            32 3.75  10 3.83  16 3.83  19 3.83
   8  0.252  0.252  0.252-  69 2.21  73 2.21  77 2.21  33 2.67  37 2.67  41 2.67  30 3.75  26 3.75
                            22 3.75  17 3.83   9 3.83  13 3.83
   9  0.244  0.477  0.995-  55 2.16  71 2.24  48 2.29  64 2.50  37 2.56  77 2.90  28 3.75  30 3.75
                             3 3.75   8 3.83  26 3.86  31 3.86
  10  0.756  0.977  0.505-  53 2.16  72 2.24  47 2.29  61 2.50  40 2.56  79 2.90  25 3.75  32 3.75
                             4 3.75   7 3.83  29 3.86  27 3.86
  11  0.256  0.523  0.495-  54 2.16  69 2.24  46 2.29  63 2.50  38 2.56  80 2.90  27 3.75  31 3.75
                             1 3.75   6 3.83  25 3.86  30 3.86
  12  0.744  0.023  0.005-  56 2.16  70 2.24  45 2.29  62 2.50  39 2.56  78 2.90  26 3.75  29 3.75
                             2 3.75   5 3.83  28 3.86  32 3.86
  13  0.995  0.244  0.477-  47 2.16  75 2.24  52 2.29  68 2.50  41 2.56  69 2.90  22 3.75  32 3.75
                             2 3.75   8 3.83  30 3.86  23 3.86
  14  0.505  0.756  0.977-  45 2.16  76 2.24  51 2.29  65 2.50  44 2.56  71 2.90  24 3.75  29 3.75
                             4 3.75   6 3.83  21 3.86  31 3.86
  15  0.495  0.256  0.523-  46 2.16  73 2.24  50 2.29  67 2.50  42 2.56  72 2.90  31 3.75  23 3.75
                             3 3.75   5 3.83  29 3.86  22 3.86
  16  0.005  0.744  0.023-  48 2.16  74 2.24  49 2.29  66 2.50  43 2.56  70 2.90  30 3.75  21 3.75
                             1 3.75   7 3.83  32 3.86  24 3.86
  17  0.477  0.995  0.244-  51 2.16  79 2.24  56 2.29  60 2.50  33 2.56  73 2.90  24 3.75  26 3.75
                             1 3.75   8 3.83  27 3.86  22 3.86
  18  0.977  0.505  0.756-  49 2.16  80 2.24  55 2.29  57 2.50  36 2.56  75 2.90  28 3.75  21 3.75
                             4 3.75   5 3.83  25 3.86  23 3.86
  19  0.523  0.495  0.256-  50 2.16  77 2.24  54 2.29  59 2.50  34 2.56  76 2.90  27 3.75  23 3.75
                             2 3.75   7 3.83  26 3.86  21 3.86
  20  0.023  0.005  0.744-  52 2.16  78 2.24  53 2.29  58 2.50  35 2.56  74 2.90  22 3.75  25 3.75
                             3 3.75   6 3.83  28 3.86  24 3.86
  21  0.756  0.523  0.005-  43 2.16  59 2.24  36 2.29  76 2.50  49 2.56  65 2.90  16 3.75  18 3.75
                             7 3.75   4 3.83  14 3.86  19 3.86
  22  0.244  0.023  0.495-  41 2.16  60 2.24  35 2.29  73 2.50  52 2.56  67 2.90  13 3.75  20 3.75
                             8 3.75   3 3.83  17 3.86  15 3.86
  23  0.744  0.477  0.505-  42 2.16  57 2.24  34 2.29  75 2.50  50 2.56  68 2.90  15 3.75  19 3.75
                             5 3.75   2 3.83  13 3.86  18 3.86
  24  0.256  0.977  0.995-  44 2.16  58 2.24  33 2.29  74 2.50  51 2.56  66 2.90  14 3.75  17 3.75
                             6 3.75   1 3.83  16 3.86  20 3.86
  25  0.005  0.756  0.523-  35 2.16  63 2.24  40 2.29  80 2.50  53 2.56  57 2.90  10 3.75  20 3.75
                             6 3.75   4 3.83  18 3.86  11 3.86
  26  0.495  0.244  0.023-  33 2.16  64 2.24  39 2.29  77 2.50  56 2.56  59 2.90  12 3.75  17 3.75
                             8 3.75   2 3.83   9 3.86  19 3.86
  27  0.505  0.744  0.477-  34 2.16  61 2.24  38 2.29  79 2.50  54 2.56  60 2.90  19 3.75  11 3.75
                             7 3.75   1 3.83  17 3.86  10 3.86
  28  0.995  0.256  0.977-  36 2.16  62 2.24  37 2.29  78 2.50  55 2.56  58 2.90  18 3.75   9 3.75
                             5 3.75   3 3.83  20 3.86  12 3.86
  29  0.523  0.005  0.756-  39 2.16  67 2.24  44 2.29  72 2.50  45 2.56  61 2.90  12 3.75  14 3.75
                             5 3.75   4 3.83  15 3.86  10 3.86
  30  0.023  0.495  0.244-  37 2.16  68 2.24  43 2.29  69 2.50  48 2.56  63 2.90  16 3.75   9 3.75
                             8 3.75   1 3.83  13 3.86  11 3.86
  31  0.477  0.505  0.744-  38 2.16  65 2.24  42 2.29  71 2.50  46 2.56  64 2.90  15 3.75  11 3.75
                             6 3.75   3 3.83  14 3.86   9 3.86
  32  0.977  0.995  0.256-  40 2.16  66 2.24  41 2.29  70 2.50  47 2.56  62 2.90  10 3.75  13 3.75
                             7 3.75   2 3.83  16 3.86  12 3.86
  33  0.365  0.120  0.090-  26 2.16  24 2.29  17 2.56   8 2.67
  34  0.635  0.620  0.410-  27 2.16  23 2.29  19 2.56   7 2.67
  35  0.135  0.880  0.590-  25 2.16  22 2.29  20 2.56   6 2.67
  36  0.865  0.380  0.910-  28 2.16  21 2.29  18 2.56   5 2.67
  37  0.090  0.365  0.120-  30 2.16  28 2.29   9 2.56   8 2.67
  38  0.410  0.635  0.620-  31 2.16  27 2.29  11 2.56   6 2.67
  39  0.590  0.135  0.880-  29 2.16  26 2.29  12 2.56   5 2.67
  40  0.910  0.865  0.380-  32 2.16  25 2.29  10 2.56   7 2.67
  41  0.120  0.090  0.365-  22 2.16  32 2.29  13 2.56   8 2.67
  42  0.620  0.410  0.635-  23 2.16  31 2.29  15 2.56   5 2.67
  43  0.880  0.590  0.135-  21 2.16  30 2.29  16 2.56   7 2.67
  44  0.380  0.910  0.865-  24 2.16  29 2.29  14 2.56   6 2.67
  45  0.635  0.880  0.910-  14 2.16  12 2.29  29 2.56   4 2.67
  46  0.365  0.380  0.590-  15 2.16  11 2.29  31 2.56   3 2.67
  47  0.865  0.120  0.410-  13 2.16  10 2.29  32 2.56   2 2.67
  48  0.135  0.620  0.090-  16 2.16   9 2.29  30 2.56   1 2.67
  49  0.910  0.635  0.880-  18 2.16  16 2.29  21 2.56   4 2.67
  50  0.590  0.365  0.380-  19 2.16  15 2.29  23 2.56   2 2.67
  51  0.410  0.865  0.120-  17 2.16  14 2.29  24 2.56   1 2.67
  52  0.090  0.135  0.620-  20 2.16  13 2.29  22 2.56   3 2.67
  53  0.880  0.910  0.635-  10 2.16  20 2.29  25 2.56   4 2.67
  54  0.380  0.590  0.365-  11 2.16  19 2.29  27 2.56   1 2.67
  55  0.120  0.410  0.865-   9 2.16  18 2.29  28 2.56   3 2.67
  56  0.620  0.090  0.135-  12 2.16  17 2.29  26 2.56   2 2.67
  57  0.823  0.608  0.632-   4 2.21  23 2.24  18 2.50  25 2.90
  58  0.177  0.108  0.868-   3 2.21  24 2.24  20 2.50  28 2.90
  59  0.677  0.392  0.132-   2 2.21  21 2.24  19 2.50  26 2.90
  60  0.323  0.892  0.368-   1 2.21  22 2.24  17 2.50  27 2.90
  61  0.632  0.823  0.608-   4 2.21  27 2.24  10 2.50  29 2.90
  62  0.868  0.177  0.108-   2 2.21  28 2.24  12 2.50  32 2.90
  63  0.132  0.677  0.392-   1 2.21  25 2.24  11 2.50  30 2.90
  64  0.368  0.323  0.892-   3 2.21  26 2.24   9 2.50  31 2.90
  65  0.608  0.632  0.823-   4 2.21  31 2.24  14 2.50  21 2.90
  66  0.108  0.868  0.177-   1 2.21  32 2.24  16 2.50  24 2.90
  67  0.392  0.132  0.677-   3 2.21  29 2.24  15 2.50  22 2.90
  68  0.892  0.368  0.323-   2 2.21  30 2.24  13 2.50  23 2.90
  69  0.177  0.392  0.368-   8 2.21  11 2.24  30 2.50  13 2.90
  70  0.823  0.892  0.132-   7 2.21  12 2.24  32 2.50  16 2.90
  71  0.323  0.608  0.868-   6 2.21   9 2.24  31 2.50  14 2.90
  72  0.677  0.108  0.632-   5 2.21  10 2.24  29 2.50  15 2.90
  73  0.368  0.177  0.392-   8 2.21  15 2.24  22 2.50  17 2.90
  74  0.132  0.823  0.892-   6 2.21  16 2.24  24 2.50  20 2.90
  75  0.868  0.323  0.608-   5 2.21  13 2.24  23 2.50  18 2.90
  76  0.632  0.677  0.108-   7 2.21  14 2.24  21 2.50  19 2.90
  77  0.392  0.368  0.177-   8 2.21  19 2.24  26 2.50   9 2.90
  78  0.892  0.132  0.823-   5 2.21  20 2.24  28 2.50  12 2.90
  79  0.608  0.868  0.323-   7 2.21  17 2.24  27 2.50  10 2.90
  80  0.108  0.632  0.677-   6 2.21  18 2.24  25 2.50  11 2.90
 
  LATTYP: Found a simple cubic cell.
 ALAT       =    11.2407532371
  
  Lattice vectors:
  
 A1 = (  11.2407532371,   0.0000000000,   0.0000000000)
 A2 = (   0.0000000000,  11.2407532371,   0.0000000000)
 A3 = (   0.0000000000,   0.0000000000,  11.2407532371)


Analysis of symmetry for initial positions (statically):
=====================================================================
 Subroutine PRICEL returns:
 Original cell was already a primitive cell.
 

 Routine SETGRP: Setting up the symmetry group for a 
 simple cubic supercell.


 Subroutine GETGRP returns: Found 24 space group operations
 (whereof  6 operations were pure point group operations)
 out of a pool of 48 trial point group operations.


The static configuration has the point symmetry S_6 .
 The point group associated with its full space group is T_h .


Analysis of symmetry for dynamics (positions and initial velocities):
=====================================================================
 Subroutine PRICEL returns:
 Original cell was already a primitive cell.
 

 Routine SETGRP: Setting up the symmetry group for a 
 simple cubic supercell.


 Subroutine GETGRP returns: Found 24 space group operations
 (whereof  6 operations were pure point group operations)
 out of a pool of 48 trial point group operations.


The dynamic configuration has the point symmetry S_6 .
 The point group associated with its full space group is T_h .


 Subroutine INISYM returns: Found 24 space group operations
 (whereof  6 operations are pure point group operations),
 and found     1 'primitive' translations


----------------------------------------------------------------------------------------

                                     Primitive cell                                     

  volume of cell :    1420.3201

  direct lattice vectors                    reciprocal lattice vectors
    11.240753237  0.000000000  0.000000000     0.088962010 -0.000000000  0.000000000
     0.000000000 11.240753237  0.000000000     0.000000000  0.088962010  0.000000000
     0.000000000  0.000000000 11.240753237    -0.000000000 -0.000000000  0.088962010

  length of vectors
    11.240753237 11.240753237 11.240753237     0.088962010  0.088962010  0.088962010

  position of ions in fractional coordinates (direct lattice)
     0.247908959  0.752091041  0.252091041
     0.752091041  0.252091041  0.247908959
     0.252091041  0.247908959  0.752091041
     0.747908959  0.747908959  0.747908959
     0.752091041  0.247908959  0.747908959
     0.247908959  0.747908959  0.752091041
     0.747908959  0.752091041  0.247908959
     0.252091041  0.252091041  0.252091041
     0.244304402  0.476585134  0.995319417
     0.755695598  0.976585134  0.504680583
     0.255695598  0.523414866  0.495319417
     0.744304402  0.023414866  0.004680583
     0.995319417  0.244304402  0.476585134
     0.504680583  0.755695598  0.976585134
     0.495319417  0.255695598  0.523414866
     0.004680583  0.744304402  0.023414866
     0.476585134  0.995319417  0.244304402
     0.976585134  0.504680583  0.755695598
     0.523414866  0.495319417  0.255695598
     0.023414866  0.004680583  0.744304402
     0.755695598  0.523414866  0.004680583
     0.244304402  0.023414866  0.495319417
     0.744304402  0.476585134  0.504680583
     0.255695598  0.976585134  0.995319417
     0.004680583  0.755695598  0.523414866
     0.495319417  0.244304402  0.023414866
     0.504680583  0.744304402  0.476585134
     0.995319417  0.255695598  0.976585134
     0.523414866  0.004680583  0.755695598
     0.023414866  0.495319417  0.244304402
     0.476585134  0.504680583  0.744304402
     0.976585134  0.995319417  0.255695598
     0.365157151  0.119816942  0.089973680
     0.634842849  0.619816942  0.410026320
     0.134842849  0.880183058  0.589973680
     0.865157151  0.380183058  0.910026320
     0.089973680  0.365157151  0.119816942
     0.410026320  0.634842849  0.619816942
     0.589973680  0.134842849  0.880183058
     0.910026320  0.865157151  0.380183058
     0.119816942  0.089973680  0.365157151
     0.619816942  0.410026320  0.634842849
     0.880183058  0.589973680  0.134842849
     0.380183058  0.910026320  0.865157151
     0.634842849  0.880183058  0.910026320
     0.365157151  0.380183058  0.589973680
     0.865157151  0.119816942  0.410026320
     0.134842849  0.619816942  0.089973680
     0.910026320  0.634842849  0.880183058
     0.589973680  0.365157151  0.380183058
     0.410026320  0.865157151  0.119816942
     0.089973680  0.134842849  0.619816942
     0.880183058  0.910026320  0.634842849
     0.380183058  0.589973680  0.365157151
     0.119816942  0.410026320  0.865157151
     0.619816942  0.089973680  0.134842849
     0.823074545  0.608017049  0.632285932
     0.176925455  0.108017049  0.867714068
     0.676925455  0.391982951  0.132285932
     0.323074545  0.891982951  0.367714068
     0.632285932  0.823074545  0.608017049
     0.867714068  0.176925455  0.108017049
     0.132285932  0.676925455  0.391982951
     0.367714068  0.323074545  0.891982951
     0.608017049  0.632285932  0.823074545
     0.108017049  0.867714068  0.176925455
     0.391982951  0.132285932  0.676925455
     0.891982951  0.367714068  0.323074545
     0.176925455  0.391982951  0.367714068
     0.823074545  0.891982951  0.132285932
     0.323074545  0.608017049  0.867714068
     0.676925455  0.108017049  0.632285932
     0.367714068  0.176925455  0.391982951
     0.132285932  0.823074545  0.891982951
     0.867714068  0.323074545  0.608017049
     0.632285932  0.676925455  0.108017049
     0.391982951  0.367714068  0.176925455
     0.891982951  0.132285932  0.823074545
     0.608017049  0.867714068  0.323074545
     0.108017049  0.632285932  0.676925455

  ion indices of the primitive-cell ions
   primitive index   ion index
                 1           1
                 2           2
                 3           3
                 4           4
                 5           5
                 6           6
                 7           7
                 8           8
                 9           9
                10          10
                11          11
                12          12
                13          13
                14          14
                15          15
                16          16
                17          17
                18          18
                19          19
                20          20
                21          21
                22          22
                23          23
                24          24
                25          25
                26          26
                27          27
                28          28
                29          29
                30          30
                31          31
                32          32
                33          33
                34          34
                35          35
                36          36
                37          37
                38          38
                39          39
                40          40
                41          41
                42          42
                43          43
                44          44
                45          45
                46          46
                47          47
                48          48
                49          49
                50          50
                51          51
                52          52
                53          53
                54          54
                55          55
                56          56
                57          57
                58          58
                59          59
                60          60
                61          61
                62          62
                63          63
                64          64
                65          65
                66          66
                67          67
                68          68
                69          69
                70          70
                71          71
                72          72
                73          73
                74          74
                75          75
                76          76
                77          77
                78          78
                79          79
                80          80

----------------------------------------------------------------------------------------

 
 
 KPOINTS: pymatgen with grid density = 3000 / numb

Automatic generation of k-mesh.
 Grid dimensions read from file:
 generate k-points for:    4    4    4

 Generating k-lattice:

  Cartesian coordinates                     Fractional coordinates (reciprocal lattice)
     0.022240502 -0.000000000  0.000000000     0.250000000 -0.000000000  0.000000000
     0.000000000  0.022240502  0.000000000     0.000000000  0.250000000  0.000000000
    -0.000000000 -0.000000000  0.022240502     0.000000000  0.000000000  0.250000000

  Length of vectors
     0.022240502  0.022240502  0.022240502

  Shift w.r.t. Gamma in fractional coordinates (k-lattice)
     0.000000000  0.000000000  0.000000000

 TETIRR: Found     45 inequivalent tetrahedra from      384
 
 Subroutine IBZKPT returns following result:
 ===========================================
 
 Found     11 irreducible k-points:
 
 Following reciprocal coordinates:
            Coordinates               Weight
  0.000000  0.000000  0.000000      1.000000
  0.250000  0.000000  0.000000      6.000000
  0.500000  0.000000  0.000000      3.000000
  0.250000  0.250000  0.000000     12.000000
  0.500000  0.250000  0.000000      6.000000
 -0.250000  0.500000  0.000000      6.000000
  0.500000  0.500000  0.000000      3.000000
  0.250000  0.250000  0.250000      8.000000
  0.500000  0.250000  0.250000     12.000000
  0.500000  0.500000  0.250000      6.000000
  0.500000  0.500000  0.500000      1.000000
 
 Following cartesian coordinates:
            Coordinates               Weight
  0.000000  0.000000  0.000000      1.000000
  0.022241 -0.000000  0.000000      6.000000
  0.044481 -0.000000  0.000000      3.000000
  0.022241  0.022241  0.000000     12.000000
  0.044481  0.022241  0.000000      6.000000
 -0.022241  0.044481  0.000000      6.000000
  0.044481  0.044481  0.000000      3.000000
  0.022241  0.022241  0.022241      8.000000
  0.044481  0.022241  0.022241     12.000000
  0.044481  0.044481  0.022241      6.000000
  0.044481  0.044481  0.044481      1.000000
 


--------------------------------------------------------------------------------------------------------




 Dimension of arrays:
   k-points           NKPTS =     11   k-points in BZ     NKDIM =     11   number of bands    NBANDS=    272
   number of dos      NEDOS =   4000   number of ions     NIONS =     80
   non local maximal  LDIM  =      5   non local SUM 2l+1 LMDIM =     13
   total plane-waves  NPLWV = 729000
   max r-space proj   IRMAX =   8974   max aug-charges    IRDMAX=  49086
   dimension x,y,z NGX =    90 NGY =   90 NGZ =   90
   dimension x,y,z NGXF=   180 NGYF=  180 NGZF=  180
   support grid    NGXF=   180 NGYF=  180 NGZF=  180
   ions per type =              32  48
   NGX,Y,Z   is equivalent  to a cutoff of  13.31, 13.31, 13.31 a.u.
   NGXF,Y,Z  is equivalent  to a cutoff of  26.62, 26.62, 26.62 a.u.

 SYSTEM =  unknown system                          
 POSCAR =  Bi32 O48                                

 Startparameter for this run:
   NWRITE =      2    write-flag & timer
   PREC   = accura    normal or accurate (medium, high low for compatibility)
   ISTART =      0    job   : 0-new  1-cont  2-samecut
   ICHARG =     11    charge: 1-file 2-atom 10-const
   ISPIN  =      1    spin polarized calculation?
   LNONCOLLINEAR =      F non collinear calculations
   LSORBIT =      F    spin-orbit coupling
   INIWAV =      1    electr: 0-lowe 1-rand  2-diag
   LASPH  =      T    aspherical Exc in radial PAW
 Electronic Relaxation 1
   ENCUT  =  600.0 eV  44.10 Ry    6.64 a.u.  22.45 22.45 22.45*2*pi/ulx,y,z
   ENINI  =  600.0     initial cutoff
   ENAUG  =  605.4 eV  augmentation charge cutoff
   NELM   =    200;   NELMIN=  5; NELMDL= -5     # of ELM steps 
   EDIFF  = 0.1E-05   stopping-criterion for ELM
   LREAL  =      T    real-space projection
   NLSPLINE    = F    spline interpolate recip. space projectors
   LCOMPAT=      F    compatible to vasp.4.4
   GGA_COMPAT  = T    GGA compatible to vasp.4.4-vasp.4.6
   LMAXPAW     = -100 max onsite density
   LMAXMIX     =    6 max onsite mixed and CHGCAR
   VOSKOWN=      0    Vosko Wilk Nusair interpolation
   ROPT   =   -0.00025  -0.00025
 Ionic relaxation
   EDIFFG = 0.1E-04   stopping-criterion for IOM
   NSW    =      0    number of steps for IOM
   NBLOCK =      1;   KBLOCK =      1    inner block; outer block 
   IBRION =     -1    ionic relax: 0-MD 1-quasi-New 2-CG
   NFREE  =      0    steps in history (QN), initial steepest desc. (CG)
   ISIF   =      2    stress and relaxation
   IWAVPR =     10    prediction:  0-non 1-charg 2-wave 3-comb
   ISYM   =      2    0-nonsym 1-usesym 2-fastsym
   LCORR  =      T    Harris-Foulkes like correction to forces

   POTIM  = 0.5000    time-step for ionic-motion
   TEIN   =    0.0    initial temperature
   TEBEG  =    0.0;   TEEND  =   0.0 temperature during run
   SMASS  =  -3.00    Nose mass-parameter (am)
   estimated Nose-frequenzy (Omega)   =  0.10E-29 period in steps = 0.13E+47 mass=  -0.289E-26a.u.
   SCALEE = 1.0000    scale energy and forces
   NPACO  =    256;   APACO  = 10.0  distance and # of slots for P.C.
   PSTRESS=    0.0 pullay stress

  Mass of Ions in am
   POMASS = 208.98 16.00
  Ionic Valenz
   ZVAL   =   5.00  6.00
  Atomic Wigner-Seitz radii
   RWIGS  =  -1.00 -1.00
  virtual crystal weights 
   VCA    =   1.00  1.00
   NELECT =     448.0000    total number of electrons
   NUPDOWN=      -1.0000    fix difference up-down

 DOS related values:
   EMIN   =  10.00;   EMAX   =-10.00  energy-range for DOS
   EFERMI =   0.00
   ISMEAR =    -5;   SIGMA  =   0.20  broadening in eV -4-tet -1-fermi 0-gaus

 Electronic relaxation 2 (details)
   IALGO  =     68    algorithm
   LDIAG  =      T    sub-space diagonalisation (order eigenvalues)
   LSUBROT=      F    optimize rotation matrix (better conditioning)
   TURBO    =      0    0=normal 1=particle mesh
   IRESTART =      0    0=no restart 2=restart with 2 vectors
   NREBOOT  =      0    no. of reboots
   NMIN     =      0    reboot dimension
   EREF     =   0.00    reference energy to select bands
   IMIX   =      4    mixing-type and parameters
     AMIX     =   0.40;   BMIX     =  1.00
     AMIX_MAG =   1.60;   BMIX_MAG =  1.00
     AMIN     =   0.10
     WC   =   100.;   INIMIX=   1;  MIXPRE=   1;  MAXMIX= -45

 Intra band minimization:
   WEIMIN = 0.0000     energy-eigenvalue tresh-hold
   EBREAK =  0.92E-09  absolut break condition
   DEPER  =   0.30     relativ break condition  

   TIME   =   0.40     timestep for ELM

  volume/ion in A,a.u.               =      17.75       119.81
  Fermi-wavevector in a.u.,A,eV,Ry     =   1.114394  2.105899 16.896721  1.241874
  Thomas-Fermi vector in A             =   2.250988
 
 Write flags
   LWAVE        =      F    write WAVECAR
   LDOWNSAMPLE  =      F    k-point downsampling of WAVECAR
   LCHARG       =      F    write CHGCAR
   LVTOT        =      F    write LOCPOT, total local potential
   LVHAR        =      F    write LOCPOT, Hartree potential only
   LELF         =      F    write electronic localiz. function (ELF)
   LORBIT       =     11    0 simple, 1 ext, 2 COOP (PROOUT), +10 PAW based schemes


 Dipole corrections
   LMONO  =      F    monopole corrections only (constant potential shift)
   LDIPOL =      F    correct potential (dipole corrections)
   IDIPOL =      0    1-x, 2-y, 3-z, 4-all directions 
   EPSILON=  1.0000000 bulk dielectric constant

 Exchange correlation treatment:
   GGA     =    --    GGA type
   LEXCH   =     8    internal setting for exchange type
   LIBXC   =     F    Libxc                    
   VOSKOWN =     0    Vosko Wilk Nusair interpolation
   LHFCALC =     F    Hartree Fock is set to
   LHFONE  =     F    Hartree Fock one center treatment
   AEXX    =    0.0000 exact exchange contribution

 Linear response parameters
   LEPSILON=     F    determine dielectric tensor
   LRPA    =     F    only Hartree local field effects (RPA)
   LNABLA  =     F    use nabla operator in PAW spheres
   LVEL    =     F    velocity operator in full k-point grid
   CSHIFT  =0.1000    complex shift for real part using Kramers Kronig
   OMEGAMAX=  -1.0    maximum frequency
   DEG_THRESHOLD= 0.2000000E-02 threshold for treating states as degnerate
   RTIME   =   -0.100 relaxation time in fs
  (WPLASMAI=    0.000 imaginary part of plasma frequency in eV, 0.658/RTIME)
   DFIELD  = 0.0000000 0.0000000 0.0000000 field for delta impulse in time
 
  Optional k-point grid parameters
   LKPOINTS_OPT  =     F    use optional k-point grid
   KPOINTS_OPT_MODE=     1    mode for optional k-point grid
 
 Orbital magnetization related:
   ORBITALMAG=     F  switch on orbital magnetization
   LCHIMAG   =     F  perturbation theory with respect to B field
   DQ        =  0.001000  dq finite difference perturbation B field
   LLRAUG    =     F  two centre corrections for induced B field



--------------------------------------------------------------------------------------------------------


 Static calculation
 charge density and potential remain constant during run
 non-spin polarized calculation
 RMM-DIIS sequential band-by-band and
  variant of blocked Davidson during initial phase
 perform sub-space diagonalisation
    before iterative eigenvector-optimisation
 no mixing
 using additional bands           48
 real space projection scheme for non local part
 use partial core corrections
 calculate Harris-corrections to forces 
   (improved forces if not selfconsistent)
 use gradient corrections 
 WARNING: stress and forces are not correct
  (second derivative of E(xc) not defined)
 use of overlap-Matrix (Vanderbilt PP)
 Fermi weights with tetrahedron method with Bloechl corrections


--------------------------------------------------------------------------------------------------------


  energy-cutoff  :      600.00
  volume of cell :     1420.32
      direct lattice vectors                 reciprocal lattice vectors
    11.240753237  0.000000000  0.000000000     0.088962010 -0.000000000  0.000000000
     0.000000000 11.240753237  0.000000000     0.000000000  0.088962010  0.000000000
     0.000000000  0.000000000 11.240753237    -0.000000000 -0.000000000  0.088962010

  length of vectors
    11.240753237 11.240753237 11.240753237     0.088962010  0.088962010  0.088962010


 
 k-points in units of 2pi/SCALE and weight: pymatgen with grid density = 3000 / numb
   0.00000000  0.00000000  0.00000000       0.016
   0.02224050 -0.00000000  0.00000000       0.094
   0.04448100 -0.00000000  0.00000000       0.047
   0.02224050  0.02224050  0.00000000       0.188
   0.04448100  0.02224050  0.00000000       0.094
  -0.02224050  0.04448100  0.00000000       0.094
   0.04448100  0.04448100  0.00000000       0.047
   0.02224050  0.02224050  0.02224050       0.125
   0.04448100  0.02224050  0.02224050       0.188
   0.04448100  0.04448100  0.02224050       0.094
   0.04448100  0.04448100  0.04448100       0.016
 
 k-points in reciprocal lattice and weights: pymatgen with grid density = 3000 / numb
   0.00000000  0.00000000  0.00000000       0.016
   0.25000000  0.00000000  0.00000000       0.094
   0.50000000  0.00000000  0.00000000       0.047
   0.25000000  0.25000000  0.00000000       0.188
   0.50000000  0.25000000  0.00000000       0.094
  -0.25000000  0.50000000  0.00000000       0.094
   0.50000000  0.50000000  0.00000000       0.047
   0.25000000  0.25000000  0.25000000       0.125
   0.50000000  0.25000000  0.25000000       0.188
   0.50000000  0.50000000  0.25000000       0.094
   0.50000000  0.50000000  0.50000000       0.016
 
 position of ions in fractional coordinates (direct lattice) 
   0.24790896  0.75209104  0.25209104
   0.75209104  0.25209104  0.24790896
   0.25209104  0.24790896  0.75209104
   0.74790896  0.74790896  0.74790896
   0.75209104  0.24790896  0.74790896
   0.24790896  0.74790896  0.75209104
   0.74790896  0.75209104  0.24790896
   0.25209104  0.25209104  0.25209104
   0.24430440  0.47658513  0.99531942
   0.75569560  0.97658513  0.50468058
   0.25569560  0.52341487  0.49531942
   0.74430440  0.02341487  0.00468058
   0.99531942  0.24430440  0.47658513
   0.50468058  0.75569560  0.97658513
   0.49531942  0.25569560  0.52341487
   0.00468058  0.74430440  0.02341487
   0.47658513  0.99531942  0.24430440
   0.97658513  0.50468058  0.75569560
   0.52341487  0.49531942  0.25569560
   0.02341487  0.00468058  0.74430440
   0.75569560  0.52341487  0.00468058
   0.24430440  0.02341487  0.49531942
   0.74430440  0.47658513  0.50468058
   0.25569560  0.97658513  0.99531942
   0.00468058  0.75569560  0.52341487
   0.49531942  0.24430440  0.02341487
   0.50468058  0.74430440  0.47658513
   0.99531942  0.25569560  0.97658513
   0.52341487  0.00468058  0.75569560
   0.02341487  0.49531942  0.24430440
   0.47658513  0.50468058  0.74430440
   0.97658513  0.99531942  0.25569560
   0.36515715  0.11981694  0.08997368
   0.63484285  0.61981694  0.41002632
   0.13484285  0.88018306  0.58997368
   0.86515715  0.38018306  0.91002632
   0.08997368  0.36515715  0.11981694
   0.41002632  0.63484285  0.61981694
   0.58997368  0.13484285  0.88018306
   0.91002632  0.86515715  0.38018306
   0.11981694  0.08997368  0.36515715
   0.61981694  0.41002632  0.63484285
   0.88018306  0.58997368  0.13484285
   0.38018306  0.91002632  0.86515715
   0.63484285  0.88018306  0.91002632
   0.36515715  0.38018306  0.58997368
   0.86515715  0.11981694  0.41002632
   0.13484285  0.61981694  0.08997368
   0.91002632  0.63484285  0.88018306
   0.58997368  0.36515715  0.38018306
   0.41002632  0.86515715  0.11981694
   0.08997368  0.13484285  0.61981694
   0.88018306  0.91002632  0.63484285
   0.38018306  0.58997368  0.36515715
   0.11981694  0.41002632  0.86515715
   0.61981694  0.08997368  0.13484285
   0.82307455  0.60801705  0.63228593
   0.17692545  0.10801705  0.86771407
   0.67692545  0.39198295  0.13228593
   0.32307455  0.89198295  0.36771407
   0.63228593  0.82307455  0.60801705
   0.86771407  0.17692545  0.10801705
   0.13228593  0.67692545  0.39198295
   0.36771407  0.32307455  0.89198295
   0.60801705  0.63228593  0.82307455
   0.10801705  0.86771407  0.17692545
   0.39198295  0.13228593  0.67692545
   0.89198295  0.36771407  0.32307455
   0.17692545  0.39198295  0.36771407
   0.82307455  0.89198295  0.13228593
   0.32307455  0.60801705  0.86771407
   0.67692545  0.10801705  0.63228593
   0.36771407  0.17692545  0.39198295
   0.13228593  0.82307455  0.89198295
   0.86771407  0.32307455  0.60801705
   0.63228593  0.67692545  0.10801705
   0.39198295  0.36771407  0.17692545
   0.89198295  0.13228593  0.82307455
   0.60801705  0.86771407  0.32307455
   0.10801705  0.63228593  0.67692545
 
 position of ions in cartesian coordinates  (Angst):
   2.78668343  8.45406980  2.83369318
   8.45406980  2.83369318  2.78668343
   2.83369318  2.78668343  8.45406980
   8.40706005  8.40706005  8.40706005
   8.45406980  2.78668343  8.40706005
   2.78668343  8.40706005  8.45406980
   8.40706005  8.45406980  2.78668343
   2.83369318  2.83369318  2.83369318
   2.74616550  5.35717588 11.18813996
   8.49458773 10.97755250  5.67298989
   2.87421112  5.88357735  5.56776334
   8.36654212  0.26320073  0.05261328
  11.18813996  2.74616550  5.35717588
   5.67298989  8.49458773 10.97755250
   5.56776334  2.87421112  5.88357735
   0.05261328  8.36654212  0.26320073
   5.35717588 11.18813996  2.74616550
  10.97755250  5.67298989  8.49458773
   5.88357735  5.56776334  2.87421112
   0.26320073  0.05261328  8.36654212
   8.49458773  5.88357735  0.05261328
   2.74616550  0.26320073  5.56776334
   8.36654212  5.35717588  5.67298989
   2.87421112 10.97755250 11.18813996
   0.05261328  8.49458773  5.88357735
   5.56776334  2.74616550  0.26320073
   5.67298989  8.36654212  5.35717588
  11.18813996  2.87421112 10.97755250
   5.88357735  0.05261328  8.49458773
   0.26320073  5.56776334  2.74616550
   5.35717588  5.67298989  8.36654212
  10.97755250 11.18813996  2.87421112
   4.10464143  1.34683268  1.01137193
   7.13611181  6.96720930  4.60900469
   1.51573519  9.89392056  6.63174855
   9.72501805  4.27354394 10.22938131
   1.01137193  4.10464143  1.34683268
   4.60900469  7.13611181  6.96720930
   6.63174855  1.51573519  9.89392056
  10.22938131  9.72501805  4.27354394
   1.34683268  1.01137193  4.10464143
   6.96720930  4.60900469  7.13611181
   9.89392056  6.63174855  1.51573519
   4.27354394 10.22938131  9.72501805
   7.13611181  9.89392056 10.22938131
   4.10464143  4.27354394  6.63174855
   9.72501805  1.34683268  4.60900469
   1.51573519  6.96720930  1.01137193
  10.22938131  7.13611181  9.89392056
   6.63174855  4.10464143  4.27354394
   4.60900469  9.72501805  1.34683268
   1.01137193  1.51573519  6.96720930
   9.89392056 10.22938131  7.13611181
   4.27354394  6.63174855  4.10464143
   1.34683268  4.60900469  9.72501805
   6.96720930  1.01137193  1.51573519
   9.25197786  6.83456962  7.10737014
   1.98877538  1.21419300  9.75375972
   7.60915199  4.40618362  1.48699352
   3.63160124 10.02656024  4.13338310
   7.10737014  9.25197786  6.83456962
   9.75375972  1.98877538  1.21419300
   1.48699352  7.60915199  4.40618362
   4.13338310  3.63160124 10.02656024
   6.83456962  7.10737014  9.25197786
   1.21419300  9.75375972  1.98877538
   4.40618362  1.48699352  7.60915199
  10.02656024  4.13338310  3.63160124
   1.98877538  4.40618362  4.13338310
   9.25197786 10.02656024  1.48699352
   3.63160124  6.83456962  9.75375972
   7.60915199  1.21419300  7.10737014
   4.13338310  1.98877538  4.40618362
   1.48699352  9.25197786 10.02656024
   9.75375972  3.63160124  6.83456962
   7.10737014  7.60915199  1.21419300
   4.40618362  4.13338310  1.98877538
  10.02656024  1.48699352  9.25197786
   6.83456962  9.75375972  3.63160124
   1.21419300  7.10737014  7.60915199
 


--------------------------------------------------------------------------------------------------------


 k-point   1 :   0.0000 0.0000 0.0000  plane waves:   47401
 k-point   2 :   0.2500 0.0000 0.0000  plane waves:   47433
 k-point   3 :   0.5000 0.0000 0.0000  plane waves:   47380
 k-point   4 :   0.2500 0.2500 0.0000  plane waves:   47376
 k-point   5 :   0.5000 0.2500 0.0000  plane waves:   47342
 k-point   6 :  -0.2500 0.5000 0.0000  plane waves:   47342
 k-point   7 :   0.5000 0.5000 0.0000  plane waves:   47416
 k-point   8 :   0.2500 0.2500 0.2500  plane waves:   47390
 k-point   9 :   0.5000 0.2500 0.2500  plane waves:   47380
 k-point  10 :   0.5000 0.5000 0.2500  plane waves:   47388
 k-point  11 :   0.5000 0.5000 0.5000  plane waves:   47216

 maximum and minimum number of plane-waves per node :      5970     5891

 maximum number of plane-waves:     47433
 maximum index in each direction: 
   IXMAX=   22   IYMAX=   22   IZMAX=   22
   IXMIN=  -22   IYMIN=  -22   IZMIN=  -22


 real space projection operators:
  total allocation   :      37938.94 KBytes
  max/ min on nodes  :       5035.94       4611.09


 parallel 3D FFT for wavefunctions:
    minimum data exchange during FFTs selected (reduces bandwidth)
 parallel 3D FFT for charge:
    minimum data exchange during FFTs selected (reduces bandwidth)


 total amount of memory used by VASP MPI-rank0   100416. kBytes
=======================================================================

   base      :      30000. kBytes
   nonlr-proj:      18401. kBytes
   fftplans  :       6161. kBytes
   grid      :       9391. kBytes
   one-center:         81. kBytes
   wavefun   :      36382. kBytes
 
     INWAV:  cpu time      0.0001: real time      0.0001
 initial charge density was supplied:
 number of electron     447.9999993 magnetization 
 keeping initial charge density in first step


--------------------------------------------------------------------------------------------------------


 Maximum index for non-local projection operator         1521
 Maximum index for augmentation-charges         1586 (set IRDMAX)


--------------------------------------------------------------------------------------------------------


 First call to EWALD:  gamma=   0.158
 Maximum number of real-space cells 3x 3x 3
 Maximum number of reciprocal cells 3x 3x 3

    FEWALD:  cpu time      0.0339: real time      0.0938


--------------------------------------- Iteration      1(   1)  ---------------------------------------


    POTLOK:  cpu time      0.1763: real time      1.0391
    SETDIJ:  cpu time      0.1852: real time      0.2040
     EDDAV:  cpu time     15.2300: real time     16.0681
 BZINTS: Fermi energy:   18.523088;  448.000000 electrons
         Band energy: 0.253413E+04;  BLOECHL correction:   -0.053613
       DOS:  cpu time      0.0579: real time      0.0582
    --------------------------------------------
      LOOP:  cpu time     15.6494: real time     17.3694

 eigenvalue-minimisations  :  5992
 total energy-change (2. order) : 0.3093479E+04  (-0.2184600E+05)
 number of electron     447.9999993 magnetization 
 augmentation part      447.9999993 magnetization 

 Free energy of the ion-electron system (eV)
  ---------------------------------------------------
  alpha Z        PSCENC =       471.73203652
  Ewald energy   TEWEN  =    -18451.30020860
  -Hartree energ DENC   =     -8547.76540080
  -exchange      EXHF   =         0.00000000
  -V(xc)+E(xc)   XCENC  =     -2142.83315789
  PAW double counting   =     29428.84183763   -25778.72621239
  entropy T*S    EENTRO =         0.00000000
  eigenvalues    EBANDS =      2534.13051131
  atomic energy  EATOM  =     25579.39933293
  Solvation  Ediel_sol  =         0.00000000
  ---------------------------------------------------
  free energy    TOTEN  =      3093.47873871 eV

  energy without entropy =     3093.47873871  energy(sigma->0) =     3093.47873871


--------------------------------------------------------------------------------------------------------




--------------------------------------- Iteration      1(   2)  ---------------------------------------


     EDDAV:  cpu time     21.5244: real time     22.7619
 BZINTS: Fermi energy:    7.048868;  448.000000 electrons
         Band energy:-0.621945E+03;  BLOECHL correction:    0.000000
       DOS:  cpu time      0.0503: real time      0.0505
    --------------------------------------------
      LOOP:  cpu time     21.5747: real time     22.8124

 eigenvalue-minimisations  :  7496
 total energy-change (2. order) :-0.3156075E+04  (-0.3021935E+04)
 number of electron     447.9999993 magnetization 
 augmentation part      447.9999993 magnetization 

 Free energy of the ion-electron system (eV)
  ---------------------------------------------------
  alpha Z        PSCENC =       471.73203652
  Ewald energy   TEWEN  =    -18451.30020860
  -Hartree energ DENC   =     -8547.76540080
  -exchange      EXHF   =         0.00000000
  -V(xc)+E(xc)   XCENC  =     -2142.83315789
  PAW double counting   =     29428.84183763   -25778.72621239
  entropy T*S    EENTRO =         0.00000000
  eigenvalues    EBANDS =      -621.94479673
  atomic energy  EATOM  =     25579.39933293
  Solvation  Ediel_sol  =         0.00000000
  ---------------------------------------------------
  free energy    TOTEN  =       -62.59656932 eV

  energy without entropy =      -62.59656932  energy(sigma->0) =      -62.59656932


--------------------------------------------------------------------------------------------------------




--------------------------------------- Iteration      1(   3)  ---------------------------------------


     EDDAV:  cpu time     20.5200: real time     21.0068
 BZINTS: Fermi energy:    4.230774;  448.000000 electrons
         Band energy:-0.100012E+04;  BLOECHL correction:    0.000000
       DOS:  cpu time      0.0543: real time      0.0547
    --------------------------------------------
      LOOP:  cpu time     20.5744: real time     21.0615

 eigenvalue-minimisations  :  6952
 total energy-change (2. order) :-0.3781707E+03  (-0.3706238E+03)
 number of electron     447.9999993 magnetization 
 augmentation part      447.9999993 magnetization 

 Free energy of the ion-electron system (eV)
  ---------------------------------------------------
  alpha Z        PSCENC =       471.73203652
  Ewald energy   TEWEN  =    -18451.30020860
  -Hartree energ DENC   =     -8547.76540080
  -exchange      EXHF   =         0.00000000
  -V(xc)+E(xc)   XCENC  =     -2142.83315789
  PAW double counting   =     29428.84183763   -25778.72621239
  entropy T*S    EENTRO =         0.00000000
  eigenvalues    EBANDS =     -1000.11553547
  atomic energy  EATOM  =     25579.39933293
  Solvation  Ediel_sol  =         0.00000000
  ---------------------------------------------------
  free energy    TOTEN  =      -440.76730806 eV

  energy without entropy =     -440.76730806  energy(sigma->0) =     -440.76730806


--------------------------------------------------------------------------------------------------------




--------------------------------------- Iteration      1(   4)  ---------------------------------------


     EDDAV:  cpu time     19.5461: real time     20.0332
 BZINTS: Fermi energy:    4.070181;  448.000000 electrons
         Band energy:-0.101716E+04;  BLOECHL correction:    0.000000
       DOS:  cpu time      0.0511: real time      0.0514
    --------------------------------------------
      LOOP:  cpu time     19.5972: real time     20.0845

 eigenvalue-minimisations  :  8416
 total energy-change (2. order) :-0.1703980E+02  (-0.1692242E+02)
 number of electron     447.9999993 magnetization 
 augmentation part      447.9999993 magnetization 

 Free energy of the ion-electron system (eV)
  ---------------------------------------------------
  alpha Z        PSCENC =       471.73203652
  Ewald energy   TEWEN  =    -18451.30020860
  -Hartree energ DENC   =     -8547.76540080
  -exchange      EXHF   =         0.00000000
  -V(xc)+E(xc)   XCENC  =     -2142.83315789
  PAW double counting   =     29428.84183763   -25778.72621239
  entropy T*S    EENTRO =         0.00000000
  eigenvalues    EBANDS =     -1017.15533816
  atomic energy  EATOM  =     25579.39933293
  Solvation  Ediel_sol  =         0.00000000
  ---------------------------------------------------
  free energy    TOTEN  =      -457.80711075 eV

  energy without entropy =     -457.80711075  energy(sigma->0) =     -457.80711075


--------------------------------------------------------------------------------------------------------




--------------------------------------- Iteration      1(   5)  ---------------------------------------


     EDDAV:  cpu time     20.2570: real time     20.4037
 BZINTS: Fermi energy:    4.065711;  448.000000 electrons
         Band energy:-0.101760E+04;  BLOECHL correction:    0.000000
       DOS:  cpu time      0.0519: real time      0.0522
    --------------------------------------------
      LOOP:  cpu time     20.3089: real time     20.4559

 eigenvalue-minimisations  :  7448
 total energy-change (2. order) :-0.4408029E+00  (-0.4400007E+00)
 number of electron     447.9999993 magnetization 
 augmentation part      447.9999993 magnetization 

 Free energy of the ion-electron system (eV)
  ---------------------------------------------------
  alpha Z        PSCENC =       471.73203652
  Ewald energy   TEWEN  =    -18451.30020860
  -Hartree energ DENC   =     -8547.76540080
  -exchange      EXHF   =         0.00000000
  -V(xc)+E(xc)   XCENC  =     -2142.83315789
  PAW double counting   =     29428.84183763   -25778.72621239
  entropy T*S    EENTRO =         0.00000000
  eigenvalues    EBANDS =     -1017.59614108
  atomic energy  EATOM  =     25579.39933293
  Solvation  Ediel_sol  =         0.00000000
  ---------------------------------------------------
  free energy    TOTEN  =      -458.24791368 eV

  energy without entropy =     -458.24791368  energy(sigma->0) =     -458.24791368


--------------------------------------------------------------------------------------------------------




--------------------------------------- Iteration      1(   6)  ---------------------------------------


    EDDIAG:  cpu time      4.4734: real time      4.9859
  RMM-DIIS:  cpu time      5.8544: real time      5.9033
    ORTHCH:  cpu time      1.2727: real time      1.2840
 BZINTS: Fermi energy:    4.065587;  448.000000 electrons
         Band energy:-0.101761E+04;  BLOECHL correction:    0.000000
       DOS:  cpu time      0.0489: real time      0.0496
    --------------------------------------------
      LOOP:  cpu time     11.6494: real time     12.2228

 eigenvalue-minimisations  :  6286
 total energy-change (2. order) :-0.1295650E-01  (-0.1295650E-01)
 number of electron     447.9999993 magnetization 
 augmentation part      447.9999993 magnetization 

 Free energy of the ion-electron system (eV)
  ---------------------------------------------------
  alpha Z        PSCENC =       471.73203652
  Ewald energy   TEWEN  =    -18451.30020860
  -Hartree energ DENC   =     -8547.76540080
  -exchange      EXHF   =         0.00000000
  -V(xc)+E(xc)   XCENC  =     -2142.83315789
  PAW double counting   =     29428.84183763   -25778.72621239
  entropy T*S    EENTRO =         0.00000000
  eigenvalues    EBANDS =     -1017.60909758
  atomic energy  EATOM  =     25579.39933293
  Solvation  Ediel_sol  =         0.00000000
  ---------------------------------------------------
  free energy    TOTEN  =      -458.26087017 eV

  energy without entropy =     -458.26087017  energy(sigma->0) =     -458.26087017


--------------------------------------------------------------------------------------------------------




--------------------------------------- Iteration      1(   7)  ---------------------------------------


    EDDIAG:  cpu time      3.2124: real time      3.6328
  RMM-DIIS:  cpu time      8.0783: real time      8.1403
    ORTHCH:  cpu time      0.9190: real time      0.9253
 BZINTS: Fermi energy:    4.065249;  448.000000 electrons
         Band energy:-0.101762E+04;  BLOECHL correction:    0.000000
       DOS:  cpu time      0.0504: real time      0.0509
    --------------------------------------------
      LOOP:  cpu time     12.2601: real time     12.7493

 eigenvalue-minimisations  :  9145
 total energy-change (2. order) :-0.7436368E-02  (-0.7421761E-02)
 number of electron     447.9999993 magnetization 
 augmentation part      447.9999993 magnetization 

 Free energy of the ion-electron system (eV)
  ---------------------------------------------------
  alpha Z        PSCENC =       471.73203652
  Ewald energy   TEWEN  =    -18451.30020860
  -Hartree energ DENC   =     -8547.76540080
  -exchange      EXHF   =         0.00000000
  -V(xc)+E(xc)   XCENC  =     -2142.83315789
  PAW double counting   =     29428.84183763   -25778.72621239
  entropy T*S    EENTRO =         0.00000000
  eigenvalues    EBANDS =     -1017.61653395
  atomic energy  EATOM  =     25579.39933293
  Solvation  Ediel_sol  =         0.00000000
  ---------------------------------------------------
  free energy    TOTEN  =      -458.26830654 eV

  energy without entropy =     -458.26830654  energy(sigma->0) =     -458.26830654


--------------------------------------------------------------------------------------------------------




--------------------------------------- Iteration      1(   8)  ---------------------------------------


    EDDIAG:  cpu time      3.9273: real time      4.3628
  RMM-DIIS:  cpu time      6.3910: real time      6.4416
    ORTHCH:  cpu time      0.8549: real time      0.8603
 BZINTS: Fermi energy:    4.065215;  448.000000 electrons
         Band energy:-0.101762E+04;  BLOECHL correction:    0.000000
       DOS:  cpu time      0.0501: real time      0.0504
    --------------------------------------------
      LOOP:  cpu time     11.2234: real time     11.7151

 eigenvalue-minimisations  :  7599
 total energy-change (2. order) :-0.6707514E-03  (-0.7350237E-03)
 number of electron     447.9999993 magnetization 
 augmentation part      447.9999993 magnetization 

 Free energy of the ion-electron system (eV)
  ---------------------------------------------------
  alpha Z        PSCENC =       471.73203652
  Ewald energy   TEWEN  =    -18451.30020860
  -Hartree energ DENC   =     -8547.76540080
  -exchange      EXHF   =         0.00000000
  -V(xc)+E(xc)   XCENC  =     -2142.83315789
  PAW double counting   =     29428.84183763   -25778.72621239
  entropy T*S    EENTRO =         0.00000000
  eigenvalues    EBANDS =     -1017.61720470
  atomic energy  EATOM  =     25579.39933293
  Solvation  Ediel_sol  =         0.00000000
  ---------------------------------------------------
  free energy    TOTEN  =      -458.26897729 eV

  energy without entropy =     -458.26897729  energy(sigma->0) =     -458.26897729


--------------------------------------------------------------------------------------------------------




--------------------------------------- Iteration      1(   9)  ---------------------------------------


    EDDIAG:  cpu time      3.6886: real time      3.7126
  RMM-DIIS:  cpu time      9.7359: real time      9.8064
    ORTHCH:  cpu time      0.9073: real time      0.9136
 BZINTS: Fermi energy:    4.065233;  448.000000 electrons
         Band energy:-0.101762E+04;  BLOECHL correction:    0.000000
       DOS:  cpu time      0.0838: real time      0.0842
    --------------------------------------------
      LOOP:  cpu time     14.4156: real time     14.5168

 eigenvalue-minimisations  :  9017
 total energy-change (2. order) :-0.1124832E-03  (-0.1186028E-03)
 number of electron     447.9999993 magnetization 
 augmentation part      447.9999993 magnetization 

 Free energy of the ion-electron system (eV)
  ---------------------------------------------------
  alpha Z        PSCENC =       471.73203652
  Ewald energy   TEWEN  =    -18451.30020860
  -Hartree energ DENC   =     -8547.76540080
  -exchange      EXHF   =         0.00000000
  -V(xc)+E(xc)   XCENC  =     -2142.83315789
  PAW double counting   =     29428.84183763   -25778.72621239
  entropy T*S    EENTRO =         0.00000000
  eigenvalues    EBANDS =     -1017.61731718
  atomic energy  EATOM  =     25579.39933293
  Solvation  Ediel_sol  =         0.00000000
  ---------------------------------------------------
  free energy    TOTEN  =      -458.26908977 eV

  energy without entropy =     -458.26908977  energy(sigma->0) =     -458.26908977


--------------------------------------------------------------------------------------------------------




--------------------------------------- Iteration      1(  10)  ---------------------------------------


    EDDIAG:  cpu time      4.0683: real time      4.0940
  RMM-DIIS:  cpu time      5.6561: real time      5.7011
    ORTHCH:  cpu time      1.2419: real time      1.2503
 BZINTS: Fermi energy:    4.065237;  448.000000 electrons
         Band energy:-0.101762E+04;  BLOECHL correction:    0.000000
       DOS:  cpu time      0.1081: real time      0.1089
    --------------------------------------------
      LOOP:  cpu time     11.0745: real time     11.1543

 eigenvalue-minimisations  :  6371
 total energy-change (2. order) :-0.1697159E-04  (-0.1800999E-04)
 number of electron     447.9999993 magnetization 
 augmentation part      447.9999993 magnetization 

 Free energy of the ion-electron system (eV)
  ---------------------------------------------------
  alpha Z        PSCENC =       471.73203652
  Ewald energy   TEWEN  =    -18451.30020860
  -Hartree energ DENC   =     -8547.76540080
  -exchange      EXHF   =         0.00000000
  -V(xc)+E(xc)   XCENC  =     -2142.83315789
  PAW double counting   =     29428.84183763   -25778.72621239
  entropy T*S    EENTRO =         0.00000000
  eigenvalues    EBANDS =     -1017.61733415
  atomic energy  EATOM  =     25579.39933293
  Solvation  Ediel_sol  =         0.00000000
  ---------------------------------------------------
  free energy    TOTEN  =      -458.26910675 eV

  energy without entropy =     -458.26910675  energy(sigma->0) =     -458.26910675


--------------------------------------------------------------------------------------------------------




--------------------------------------- Iteration      1(  11)  ---------------------------------------


    EDDIAG:  cpu time      3.4654: real time      3.4911
  RMM-DIIS:  cpu time      8.3306: real time      8.3895
    ORTHCH:  cpu time      0.9418: real time      0.9477
 BZINTS: Fermi energy:    4.065207;  448.000000 electrons
         Band energy:-0.101762E+04;  BLOECHL correction:    0.000000
       DOS:  cpu time      0.0497: real time      0.0500
    --------------------------------------------
      LOOP:  cpu time     12.7875: real time     12.8783

 eigenvalue-minimisations  :  6197
 total energy-change (2. order) :-0.2811372E-05  (-0.3006986E-05)
 number of electron     447.9999993 magnetization 
 augmentation part      447.9999993 magnetization 

 Free energy of the ion-electron system (eV)
  ---------------------------------------------------
  alpha Z        PSCENC =       471.73203652
  Ewald energy   TEWEN  =    -18451.30020860
  -Hartree energ DENC   =     -8547.76540080
  -exchange      EXHF   =         0.00000000
  -V(xc)+E(xc)   XCENC  =     -2142.83315789
  PAW double counting   =     29428.84183763   -25778.72621239
  entropy T*S    EENTRO =         0.00000000
  eigenvalues    EBANDS =     -1017.61733696
  atomic energy  EATOM  =     25579.39933293
  Solvation  Ediel_sol  =         0.00000000
  ---------------------------------------------------
  free energy    TOTEN  =      -458.26910956 eV

  energy without entropy =     -458.26910956  energy(sigma->0) =     -458.26910956


--------------------------------------------------------------------------------------------------------




--------------------------------------- Iteration      1(  12)  ---------------------------------------


    EDDIAG:  cpu time      2.4813: real time      2.4985
  RMM-DIIS:  cpu time      4.7984: real time      4.8347
    ORTHCH:  cpu time      0.5340: real time      0.5371
 BZINTS: Fermi energy:    4.065407;  448.000000 electrons
         Band energy:-0.101762E+04;  BLOECHL correction:    0.000000
       DOS:  cpu time      0.0493: real time      0.0501
    --------------------------------------------
      LOOP:  cpu time      7.8631: real time      7.9203

 eigenvalue-minimisations  :  4868
 total energy-change (2. order) :-0.5720867E-06  (-0.6035984E-06)
 number of electron     447.9999993 magnetization 
 augmentation part      447.9999993 magnetization 

 Free energy of the ion-electron system (eV)
  ---------------------------------------------------
  alpha Z        PSCENC =       471.73203652
  Ewald energy   TEWEN  =    -18451.30020860
  -Hartree energ DENC   =     -8547.76540080
  -exchange      EXHF   =         0.00000000
  -V(xc)+E(xc)   XCENC  =     -2142.83315789
  PAW double counting   =     29428.84183763   -25778.72621239
  entropy T*S    EENTRO =         0.00000000
  eigenvalues    EBANDS =     -1017.61733754
  atomic energy  EATOM  =     25579.39933293
  Solvation  Ediel_sol  =         0.00000000
  ---------------------------------------------------
  free energy    TOTEN  =      -458.26911013 eV

  energy without entropy =     -458.26911013  energy(sigma->0) =     -458.26911013


--------------------------------------------------------------------------------------------------------




 average (electrostatic) potential at core
  the test charge radii are     1.4024  0.7215
  (the norm of the test charge is              1.0000)
       1 -62.2091       2 -62.2091       3 -62.2091       4 -62.2091       5 -62.2091
       6 -62.2091       7 -62.2091       8 -62.2091       9 -62.2622      10 -62.2622
      11 -62.2622      12 -62.2622      13 -62.2622      14 -62.2622      15 -62.2622
      16 -62.2622      17 -62.2622      18 -62.2622      19 -62.2622      20 -62.2622
      21 -62.2622      22 -62.2622      23 -62.2622      24 -62.2622      25 -62.2622
      26 -62.2622      27 -62.2622      28 -62.2622      29 -62.2622      30 -62.2622
      31 -62.2622      32 -62.2622      33 -69.9558      34 -69.9558      35 -69.9558
      36 -69.9558      37 -69.9558      38 -69.9558      39 -69.9558      40 -69.9558
      41 -69.9558      42 -69.9558      43 -69.9558      44 -69.9558      45 -69.9558
      46 -69.9558      47 -69.9558      48 -69.9558      49 -69.9558      50 -69.9558
      51 -69.9558      52 -69.9558      53 -69.9558      54 -69.9558      55 -69.9558
      56 -69.9558      57 -69.8408      58 -69.8408      59 -69.8408      60 -69.8408
      61 -69.8408      62 -69.8408      63 -69.8408      64 -69.8408      65 -69.8408
      66 -69.8408      67 -69.8408      68 -69.8408      69 -69.8408      70 -69.8408
      71 -69.8408      72 -69.8408      73 -69.8408      74 -69.8408      75 -69.8408
      76 -69.8408      77 -69.8408      78 -69.8408      79 -69.8408      80 -69.8408
 
 
 
 E-fermi :   4.0654     XC(G=0):  -9.8446     alpha+bet :-10.4905

 Fermi energy:         4.0654068980

 k-point     1 :       0.0000    0.0000    0.0000
  band No.  band energies     occupation 
      1     -14.0298      2.00000
      2     -13.6512      2.00000
      3     -13.6512      2.00000
      4     -13.6512      2.00000
      5     -13.5080      2.00000
      6     -13.5080      2.00000
      7     -13.5080      2.00000
      8     -13.2022      2.00000
      9     -13.2022      2.00000
     10     -13.1304      2.00000
     11     -13.1304      2.00000
     12     -13.1304      2.00000
     13     -13.1088      2.00000
     14     -13.1088      2.00000
     15     -13.1088      2.00000
     16     -12.9639      2.00000
     17     -12.9639      2.00000
     18     -12.9639      2.00000
     19     -12.9368      2.00000
     20     -12.9368      2.00000
     21     -12.9368      2.00000
     22     -12.9316      2.00000
     23     -12.7881      2.00000
     24     -12.7717      2.00000
     25     -12.5827      2.00000
     26     -12.5827      2.00000
     27     -12.5827      2.00000
     28     -12.5805      2.00000
     29     -12.5805      2.00000
     30     -12.5465      2.00000
     31     -12.5465      2.00000
     32     -12.5465      2.00000
     33     -12.4439      2.00000
     34     -12.4439      2.00000
     35     -12.4411      2.00000
     36     -12.4411      2.00000
     37     -12.4411      2.00000
     38     -12.3860      2.00000
     39     -12.3860      2.00000
     40     -12.3860      2.00000
     41     -12.3821      2.00000
     42     -12.3821      2.00000
     43     -12.3261      2.00000
     44     -12.3261      2.00000
     45     -12.3261      2.00000
     46     -12.2159      2.00000
     47     -12.2159      2.00000
     48     -12.2159      2.00000
     49      -5.9074      2.00000
     50      -5.9074      2.00000
     51      -5.9074      2.00000
     52      -5.7678      2.00000
     53      -5.7678      2.00000
     54      -5.7313      2.00000
     55      -5.7313      2.00000
     56      -5.7313      2.00000
     57      -5.7056      2.00000
     58      -5.3875      2.00000
     59      -5.3875      2.00000
     60      -5.3875      2.00000
     61      -5.3135      2.00000
     62      -5.3135      2.00000
     63      -5.3135      2.00000
     64      -5.1862      2.00000
     65      -5.1862      2.00000
     66      -5.1274      2.00000
     67      -5.1274      2.00000
     68      -5.1274      2.00000
     69      -5.0979      2.00000
     70      -5.0511      2.00000
     71      -5.0511      2.00000
     72      -5.0511      2.00000
     73      -4.7420      2.00000
     74      -3.9901      2.00000
     75      -3.9901      2.00000
     76      -3.9901      2.00000
     77      -3.8215      2.00000
     78      -3.8215      2.00000
     79      -3.8215      2.00000
     80      -2.9731      2.00000
     81      -0.6320      2.00000
     82      -0.6320      2.00000
     83      -0.6320      2.00000
     84      -0.4909      2.00000
     85      -0.4026      2.00000
     86      -0.4026      2.00000
     87      -0.4026      2.00000
     88      -0.4012      2.00000
     89      -0.4012      2.00000
     90      -0.4012      2.00000
     91      -0.3733      2.00000
     92      -0.0913      2.00000
     93      -0.0913      2.00000
     94      -0.0913      2.00000
     95      -0.0721      2.00000
     96      -0.0721      2.00000
     97      -0.0721      2.00000
     98      -0.0152      2.00000
     99       0.1015      2.00000
    100       0.1015      2.00000
    101       0.1827      2.00000
    102       0.1827      2.00000
    103       0.1827      2.00000
    104       0.2257      2.00000
    105       0.2257      2.00000
    106       0.2257      2.00000
    107       0.2260      2.00000
    108       0.2260      2.00000
    109       0.3922      2.00000
    110       0.5133      2.00000
    111       0.5133      2.00000
    112       0.5133      2.00000
    113       0.5944      2.00000
    114       0.5944      2.00000
    115       0.5944      2.00000
    116       0.7567      2.00000
    117       0.7567      2.00000
    118       0.7592      2.00000
    119       0.7592      2.00000
    120       0.7592      2.00000
    121       0.8600      2.00000
    122       0.8600      2.00000
    123       0.8600      2.00000
    124       0.9212      2.00000
    125       0.9212      2.00000
    126       0.9212      2.00000
    127       0.9973      2.00000
    128       1.0354      2.00000
    129       1.0354      2.00000
    130       1.1781      2.00000
    131       1.3315      2.00000
    132       1.3315      2.00000
    133       1.3315      2.00000
    134       1.4236      2.00000
    135       1.4236      2.00000
    136       1.4236      2.00000
    137       1.4319      2.00000
    138       1.4319      2.00000
    139       1.5737      2.00000
    140       1.5737      2.00000
    141       1.5737      2.00000
    142       1.7515      2.00000
    143       1.7515      2.00000
    144       1.7515      2.00000
    145       1.8208      2.00000
    146       1.8208      2.00000
    147       1.8208      2.00000
    148       1.8807      2.00000
    149       1.8807      2.00000
    150       1.8807      2.00000
    151       2.0632      2.00000
    152       2.0632      2.00000
    153       2.0632      2.00000
    154       2.0806      2.00000
    155       2.0806      2.00000
    156       2.1039      2.00000
    157       2.1039      2.00000
    158       2.1219      2.00000
    159       2.2565      2.00000
    160       2.2565      2.00000
    161       2.2565      2.00000
    162       2.3788      2.00000
    163       2.3788      2.00000
    164       2.3838      2.00000
    165       2.3838      2.00000
    166       2.3838      2.00000
    167       2.4996      2.00000
    168       2.4996      2.00000
    169       2.4996      2.00000
    170       2.5315      2.00000
    171       2.5315      2.00000
    172       2.5315      2.00000
    173       2.5583      2.00000
    174       2.5583      2.00000
    175       2.5669      2.00000
    176       2.6619      2.00000
    177       2.6619      2.00000
    178       2.6619      2.00000
    179       2.7195      2.00000
    180       2.7195      2.00000
    181       2.7195      2.00000
    182       2.7573      2.00000
    183       2.7573      2.00000
    184       2.7573      2.00000
    185       2.8394      2.00000
    186       2.8394      2.00000
    187       2.8517      2.00000
    188       2.8517      2.00000
    189       2.8517      2.00000
    190       2.8907      2.00000
    191       2.9306      2.00000
    192       2.9306      2.00000
    193       2.9306      2.00000
    194       3.2131      2.00000
    195       3.2131      2.00000
    196       3.2131      2.00000
    197       3.3602      2.00000
    198       3.3602      2.00000
    199       3.3602      2.00000
    200       3.3909      2.00000
    201       3.3909      2.00000
    202       3.3909      2.00000
    203       3.6206      2.00000
    204       3.6206      2.00000
    205       3.6206      2.00000
    206       3.6641      2.00000
    207       3.6703      2.00000
    208       3.7304      2.00000
    209       3.7304      2.00000
    210       3.7304      2.00000
    211       3.7349      2.00000
    212       3.7349      2.00000
    213       3.7638      2.00000
    214       3.7638      2.00000
    215       3.7638      2.00000
    216       3.7768      2.00000
    217       3.7768      2.00000
    218       3.9831      2.00000
    219       3.9831      2.00000
    220       3.9831      2.00000
    221       4.0108      2.00000
    222       4.0652      2.00000
    223       4.0652      2.00000
    224       4.0652      2.00000
    225       6.4559      0.00000
    226       6.4640      0.00000
    227       6.4640      0.00000
    228       6.4640      0.00000
    229       6.7913      0.00000
    230       6.7913      0.00000
    231       6.7913      0.00000
    232       7.2642      0.00000
    233       7.4605      0.00000
    234       7.4605      0.00000
    235       7.4605      0.00000
    236       7.5317      0.00000
    237       7.5317      0.00000
    238       7.5318      0.00000
    239       7.6586      0.00000
    240       7.6586      0.00000
    241       7.6587      0.00000
    242       7.6870      0.00000
    243       7.6870      0.00000
    244       7.6870      0.00000
    245       7.9817      0.00000
    246       7.9818      0.00000
    247       8.0664      0.00000
    248       8.0665      0.00000
    249       8.3871      0.00000
    250       8.3872      0.00000
    251       8.3889      0.00000
    252       8.4351      0.00000
    253       8.4772      0.00000
    254       8.4776      0.00000
    255       8.4803      0.00000
    256       8.6068      0.00000
    257       8.6135      0.00000
    258       8.6495      0.00000
    259       8.6504      0.00000
    260       8.6529      0.00000
    261       8.6760      0.00000
    262       8.6798      0.00000
    263       8.7342      0.00000
    264       8.8973      0.00000
    265       8.9054      0.00000
    266       8.9462      0.00000
    267       9.4851      0.00000
    268       9.5069      0.00000
    269       9.5765      0.00000
[...]
   -.388E+02 -.599E+02 0.860E+01   0.426E+02 0.635E+02 -.774E+01   -.382E+01 -.367E+01 -.847E+00   -.514E-03 -.119E-02 -.908E-03
   0.388E+02 -.599E+02 -.860E+01   -.426E+02 0.635E+02 0.774E+01   0.382E+01 -.367E+01 0.847E+00   0.514E-03 -.119E-02 0.908E-03
   -.388E+02 0.599E+02 -.860E+01   0.426E+02 -.635E+02 0.774E+01   -.382E+01 0.367E+01 0.847E+00   -.514E-03 0.119E-02 0.908E-03
   0.860E+01 0.388E+02 0.599E+02   -.774E+01 -.426E+02 -.635E+02   -.847E+00 0.382E+01 0.367E+01   -.908E-03 0.514E-03 0.119E-02
   0.860E+01 -.388E+02 -.599E+02   -.774E+01 0.426E+02 0.635E+02   -.847E+00 -.382E+01 -.367E+01   -.908E-03 -.514E-03 -.119E-02
   -.860E+01 0.388E+02 -.599E+02   0.774E+01 -.426E+02 0.635E+02   0.847E+00 0.382E+01 -.367E+01   0.908E-03 0.514E-03 -.119E-02
   -.860E+01 -.388E+02 0.599E+02   0.774E+01 0.426E+02 -.635E+02   0.847E+00 -.382E+01 0.367E+01   0.908E-03 -.514E-03 0.119E-02
   0.522E+02 -.852E+01 -.133E+02   -.581E+02 0.647E+01 0.183E+02   0.583E+01 0.205E+01 -.503E+01   0.200E-02 -.159E-02 -.530E-02
   -.522E+02 -.852E+01 0.133E+02   0.581E+02 0.647E+01 -.183E+02   -.583E+01 0.205E+01 0.503E+01   -.200E-02 -.159E-02 0.530E-02
   -.522E+02 0.852E+01 -.133E+02   0.581E+02 -.647E+01 0.183E+02   -.583E+01 -.205E+01 -.503E+01   -.200E-02 0.159E-02 -.530E-02
   0.522E+02 0.852E+01 0.133E+02   -.581E+02 -.647E+01 -.183E+02   0.583E+01 -.205E+01 0.503E+01   0.200E-02 0.159E-02 0.530E-02
   -.133E+02 0.522E+02 -.852E+01   0.183E+02 -.581E+02 0.647E+01   -.503E+01 0.583E+01 0.205E+01   -.530E-02 0.200E-02 -.159E-02
   0.133E+02 -.522E+02 -.852E+01   -.183E+02 0.581E+02 0.647E+01   0.503E+01 -.583E+01 0.205E+01   0.530E-02 -.200E-02 -.159E-02
   -.133E+02 -.522E+02 0.852E+01   0.183E+02 0.581E+02 -.647E+01   -.503E+01 -.583E+01 -.205E+01   -.530E-02 -.200E-02 0.159E-02
   0.133E+02 0.522E+02 0.852E+01   -.183E+02 -.581E+02 -.647E+01   0.503E+01 0.583E+01 -.205E+01   0.530E-02 0.200E-02 0.159E-02
   -.852E+01 -.133E+02 0.522E+02   0.647E+01 0.183E+02 -.581E+02   0.205E+01 -.503E+01 0.583E+01   -.159E-02 -.530E-02 0.200E-02
   -.852E+01 0.133E+02 -.522E+02   0.647E+01 -.183E+02 0.581E+02   0.205E+01 0.503E+01 -.583E+01   -.159E-02 0.530E-02 -.200E-02
   0.852E+01 -.133E+02 -.522E+02   -.647E+01 0.183E+02 0.581E+02   -.205E+01 -.503E+01 -.583E+01   0.159E-02 -.530E-02 -.200E-02
   0.852E+01 0.133E+02 0.522E+02   -.647E+01 -.183E+02 -.581E+02   -.205E+01 0.503E+01 0.583E+01   0.159E-02 0.530E-02 0.200E-02
   -.522E+02 0.852E+01 0.133E+02   0.581E+02 -.647E+01 -.183E+02   -.583E+01 -.205E+01 0.503E+01   -.200E-02 0.159E-02 0.530E-02
   0.522E+02 0.852E+01 -.133E+02   -.581E+02 -.647E+01 0.183E+02   0.583E+01 -.205E+01 -.503E+01   0.200E-02 0.159E-02 -.530E-02
   0.522E+02 -.852E+01 0.133E+02   -.581E+02 0.647E+01 -.183E+02   0.583E+01 0.205E+01 0.503E+01   0.200E-02 -.159E-02 0.530E-02
   -.522E+02 -.852E+01 -.133E+02   0.581E+02 0.647E+01 0.183E+02   -.583E+01 0.205E+01 -.503E+01   -.200E-02 -.159E-02 -.530E-02
   0.133E+02 -.522E+02 0.852E+01   -.183E+02 0.581E+02 -.647E+01   0.503E+01 -.583E+01 -.205E+01   0.530E-02 -.200E-02 0.159E-02
   -.133E+02 0.522E+02 0.852E+01   0.183E+02 -.581E+02 -.647E+01   -.503E+01 0.583E+01 -.205E+01   -.530E-02 0.200E-02 0.159E-02
   0.133E+02 0.522E+02 -.852E+01   -.183E+02 -.581E+02 0.647E+01   0.503E+01 0.583E+01 0.205E+01   0.530E-02 0.200E-02 -.159E-02
   -.133E+02 -.522E+02 -.852E+01   0.183E+02 0.581E+02 0.647E+01   -.503E+01 -.583E+01 0.205E+01   -.530E-02 -.200E-02 -.159E-02
   0.852E+01 0.133E+02 -.522E+02   -.647E+01 -.183E+02 0.581E+02   -.205E+01 0.503E+01 -.583E+01   0.159E-02 0.530E-02 -.200E-02
   0.852E+01 -.133E+02 0.522E+02   -.647E+01 0.183E+02 -.581E+02   -.205E+01 -.503E+01 0.583E+01   0.159E-02 -.530E-02 0.200E-02
   -.852E+01 0.133E+02 0.522E+02   0.647E+01 -.183E+02 -.581E+02   0.205E+01 0.503E+01 0.583E+01   -.159E-02 0.530E-02 0.200E-02
   -.852E+01 -.133E+02 -.522E+02   0.647E+01 0.183E+02 0.581E+02   0.205E+01 -.503E+01 -.583E+01   -.159E-02 -.530E-02 -.200E-02
   -.282E+02 0.405E+01 0.407E+02   0.335E+02 -.405E+01 -.433E+02   -.529E+01 -.239E-02 0.258E+01   -.692E-02 0.890E-03 -.137E-02
   0.282E+02 0.405E+01 -.407E+02   -.335E+02 -.405E+01 0.433E+02   0.529E+01 -.239E-02 -.258E+01   0.692E-02 0.890E-03 0.137E-02
   0.282E+02 -.405E+01 0.407E+02   -.335E+02 0.405E+01 -.433E+02   0.529E+01 0.239E-02 0.258E+01   0.692E-02 -.890E-03 -.137E-02
   -.282E+02 -.405E+01 -.407E+02   0.335E+02 0.405E+01 0.433E+02   -.529E+01 0.239E-02 -.258E+01   -.692E-02 -.890E-03 0.137E-02
   0.407E+02 -.282E+02 0.405E+01   -.433E+02 0.335E+02 -.405E+01   0.258E+01 -.529E+01 -.239E-02   -.137E-02 -.692E-02 0.890E-03
   -.407E+02 0.282E+02 0.405E+01   0.433E+02 -.335E+02 -.405E+01   -.258E+01 0.529E+01 -.239E-02   0.137E-02 0.692E-02 0.890E-03
   0.407E+02 0.282E+02 -.405E+01   -.433E+02 -.335E+02 0.405E+01   0.258E+01 0.529E+01 0.239E-02   -.137E-02 0.692E-02 -.890E-03
   -.407E+02 -.282E+02 -.405E+01   0.433E+02 0.335E+02 0.405E+01   -.258E+01 -.529E+01 0.239E-02   0.137E-02 -.692E-02 -.890E-03
   0.405E+01 0.407E+02 -.282E+02   -.405E+01 -.433E+02 0.335E+02   -.239E-02 0.258E+01 -.529E+01   0.890E-03 -.137E-02 -.692E-02
   0.405E+01 -.407E+02 0.282E+02   -.405E+01 0.433E+02 -.335E+02   -.239E-02 -.258E+01 0.529E+01   0.890E-03 0.137E-02 0.692E-02
   -.405E+01 0.407E+02 0.282E+02   0.405E+01 -.433E+02 -.335E+02   0.239E-02 0.258E+01 0.529E+01   -.890E-03 -.137E-02 0.692E-02
   -.405E+01 -.407E+02 -.282E+02   0.405E+01 0.433E+02 0.335E+02   0.239E-02 -.258E+01 -.529E+01   -.890E-03 0.137E-02 -.692E-02
   0.282E+02 -.405E+01 -.407E+02   -.335E+02 0.405E+01 0.433E+02   0.529E+01 0.239E-02 -.258E+01   0.692E-02 -.890E-03 0.137E-02
   -.282E+02 -.405E+01 0.407E+02   0.335E+02 0.405E+01 -.433E+02   -.529E+01 0.239E-02 0.258E+01   -.692E-02 -.890E-03 -.137E-02
   -.282E+02 0.405E+01 -.407E+02   0.335E+02 -.405E+01 0.433E+02   -.529E+01 -.239E-02 -.258E+01   -.692E-02 0.890E-03 0.137E-02
   0.282E+02 0.405E+01 0.407E+02   -.335E+02 -.405E+01 -.433E+02   0.529E+01 -.239E-02 0.258E+01   0.692E-02 0.890E-03 -.137E-02
   -.407E+02 0.282E+02 -.405E+01   0.433E+02 -.335E+02 0.405E+01   -.258E+01 0.529E+01 0.239E-02   0.137E-02 0.692E-02 -.890E-03
   0.407E+02 -.282E+02 -.405E+01   -.433E+02 0.335E+02 0.405E+01   0.258E+01 -.529E+01 0.239E-02   -.137E-02 -.692E-02 -.890E-03
   -.407E+02 -.282E+02 0.405E+01   0.433E+02 0.335E+02 -.405E+01   -.258E+01 -.529E+01 -.239E-02   0.137E-02 -.692E-02 0.890E-03
   0.407E+02 0.282E+02 0.405E+01   -.433E+02 -.335E+02 -.405E+01   0.258E+01 0.529E+01 -.239E-02   -.137E-02 0.692E-02 0.890E-03
   -.405E+01 -.407E+02 0.282E+02   0.405E+01 0.433E+02 -.335E+02   0.239E-02 -.258E+01 0.529E+01   -.890E-03 0.137E-02 0.692E-02
   -.405E+01 0.407E+02 -.282E+02   0.405E+01 -.433E+02 0.335E+02   0.239E-02 0.258E+01 -.529E+01   -.890E-03 -.137E-02 -.692E-02
   0.405E+01 -.407E+02 -.282E+02   -.405E+01 0.433E+02 0.335E+02   -.239E-02 -.258E+01 -.529E+01   0.890E-03 0.137E-02 -.692E-02
   0.405E+01 0.407E+02 0.282E+02   -.405E+01 -.433E+02 -.335E+02   -.239E-02 0.258E+01 0.529E+01   0.890E-03 -.137E-02 0.692E-02
 -----------------------------------------------------------------------------------------------
   0.495E-08 0.114E-08 -.344E-08   0.240E-13 0.924E-13 0.206E-12   -.266E-14 0.133E-14 0.266E-14   -.188E-08 -.145E-08 0.298E-08
 
 
 POSITION                                       TOTAL-FORCE (eV/Angst)
 -----------------------------------------------------------------------------------
      2.78668      8.45407      2.83369         0.001571     -0.001571     -0.001571
      8.45407      2.83369      2.78668        -0.001571     -0.001571      0.001571
      2.83369      2.78668      8.45407        -0.001571      0.001571     -0.001571
      8.40706      8.40706      8.40706         0.001571      0.001571      0.001571
      8.45407      2.78668      8.40706        -0.001571      0.001571      0.001571
      2.78668      8.40706      8.45407         0.001571      0.001571     -0.001571
      8.40706      8.45407      2.78668         0.001571     -0.001571      0.001571
      2.83369      2.83369      2.83369        -0.001571     -0.001571     -0.001571
      2.74617      5.35718     11.18814         0.006996     -0.002479      0.001461
      8.49459     10.97755      5.67299        -0.006996     -0.002479     -0.001461
      2.87421      5.88358      5.56776        -0.006996      0.002479      0.001461
      8.36654      0.26320      0.05261         0.006996      0.002479     -0.001461
     11.18814      2.74617      5.35718         0.001461      0.006996     -0.002479
      5.67299      8.49459     10.97755        -0.001461     -0.006996     -0.002479
      5.56776      2.87421      5.88358         0.001461     -0.006996      0.002479
      0.05261      8.36654      0.26320        -0.001461      0.006996      0.002479
      5.35718     11.18814      2.74617        -0.002479      0.001461      0.006996
     10.97755      5.67299      8.49459        -0.002479     -0.001461     -0.006996
      5.88358      5.56776      2.87421         0.002479      0.001461     -0.006996
      0.26320      0.05261      8.36654         0.002479     -0.001461      0.006996
      8.49459      5.88358      0.05261        -0.006996      0.002479     -0.001461
      2.74617      0.26320      5.56776         0.006996      0.002479      0.001461
      8.36654      5.35718      5.67299         0.006996     -0.002479     -0.001461
      2.87421     10.97755     11.18814        -0.006996     -0.002479      0.001461
      0.05261      8.49459      5.88358        -0.001461     -0.006996      0.002479
      5.56776      2.74617      0.26320         0.001461      0.006996      0.002479
      5.67299      8.36654      5.35718        -0.001461      0.006996     -0.002479
     11.18814      2.87421     10.97755         0.001461     -0.006996     -0.002479
      5.88358      0.05261      8.49459         0.002479     -0.001461     -0.006996
      0.26320      5.56776      2.74617         0.002479      0.001461      0.006996
      5.35718      5.67299      8.36654        -0.002479     -0.001461      0.006996
     10.97755     11.18814      2.87421        -0.002479      0.001461     -0.006996
      4.10464      1.34683      1.01137        -0.003694     -0.004227     -0.001675
      7.13611      6.96721      4.60900         0.003694     -0.004227      0.001675
      1.51574      9.89392      6.63175         0.003694      0.004227     -0.001675
      9.72502      4.27354     10.22938        -0.003694      0.004227      0.001675
      1.01137      4.10464      1.34683        -0.001675     -0.003694     -0.004227
      4.60900      7.13611      6.96721         0.001675      0.003694     -0.004227
      6.63175      1.51574      9.89392        -0.001675      0.003694      0.004227
     10.22938      9.72502      4.27354         0.001675     -0.003694      0.004227
      1.34683      1.01137      4.10464        -0.004227     -0.001675     -0.003694
      6.96721      4.60900      7.13611        -0.004227      0.001675      0.003694
      9.89392      6.63175      1.51574         0.004227     -0.001675      0.003694
      4.27354     10.22938      9.72502         0.004227      0.001675     -0.003694
      7.13611      9.89392     10.22938         0.003694      0.004227      0.001675
      4.10464      4.27354      6.63175        -0.003694      0.004227     -0.001675
      9.72502      1.34683      4.60900        -0.003694     -0.004227      0.001675
      1.51574      6.96721      1.01137         0.003694     -0.004227     -0.001675
     10.22938      7.13611      9.89392         0.001675      0.003694      0.004227
      6.63175      4.10464      4.27354        -0.001675     -0.003694      0.004227
      4.60900      9.72502      1.34683         0.001675     -0.003694     -0.004227
      1.01137      1.51574      6.96721        -0.001675      0.003694     -0.004227
      9.89392     10.22938      7.13611         0.004227      0.001675      0.003694
      4.27354      6.63175      4.10464         0.004227     -0.001675     -0.003694
      1.34683      4.60900      9.72502        -0.004227      0.001675     -0.003694
      6.96721      1.01137      1.51574        -0.004227     -0.001675      0.003694
      9.25198      6.83457      7.10737         0.003020      0.001151     -0.005510
      1.98878      1.21419      9.75376        -0.003020      0.001151      0.005510
      7.60915      4.40618      1.48699        -0.003020     -0.001151     -0.005510
      3.63160     10.02656      4.13338         0.003020     -0.001151      0.005510
      7.10737      9.25198      6.83457        -0.005510      0.003020      0.001151
      9.75376      1.98878      1.21419         0.005510     -0.003020      0.001151
      1.48699      7.60915      4.40618        -0.005510     -0.003020     -0.001151
      4.13338      3.63160     10.02656         0.005510      0.003020     -0.001151
      6.83457      7.10737      9.25198         0.001151     -0.005510      0.003020
      1.21419      9.75376      1.98878         0.001151      0.005510     -0.003020
      4.40618      1.48699      7.60915        -0.001151     -0.005510     -0.003020
     10.02656      4.13338      3.63160        -0.001151      0.005510      0.003020
      1.98878      4.40618      4.13338        -0.003020     -0.001151      0.005510
      9.25198     10.02656      1.48699         0.003020     -0.001151     -0.005510
      3.63160      6.83457      9.75376         0.003020      0.001151      0.005510
      7.60915      1.21419      7.10737        -0.003020      0.001151     -0.005510
      4.13338      1.98878      4.40618         0.005510     -0.003020     -0.001151
      1.48699      9.25198     10.02656        -0.005510      0.003020     -0.001151
      9.75376      3.63160      6.83457         0.005510      0.003020      0.001151
      7.10737      7.60915      1.21419        -0.005510     -0.003020      0.001151
      4.40618      4.13338      1.98878        -0.001151      0.005510     -0.003020
     10.02656      1.48699      9.25198        -0.001151     -0.005510      0.003020
      6.83457      9.75376      3.63160         0.001151      0.005510      0.003020
      1.21419      7.10737      7.60915         0.001151     -0.005510     -0.003020
 -----------------------------------------------------------------------------------
    total drift:                                0.000000     -0.000000     -0.000000


--------------------------------------------------------------------------------------------------------



  FREE ENERGIE OF THE ION-ELECTRON SYSTEM (eV)
  ---------------------------------------------------
  free  energy   TOTEN  =      -477.79630834 eV

  energy  without entropy=     -477.79630834  energy(sigma->0) =     -477.79630834
 


--------------------------------------------------------------------------------------------------------


    POTLOK:  cpu time      0.2545: real time      0.2560


--------------------------------------------------------------------------------------------------------


     LOOP+:  cpu time    192.8150: real time    200.6827
    4ORBIT:  cpu time      0.0000: real time      0.0000



 total charge

# of ion       s       p       d       tot
------------------------------------------
    1        1.831   1.403   0.264   3.497
    2        1.831   1.403   0.264   3.497
    3        1.831   1.403   0.264   3.497
    4        1.831   1.403   0.264   3.497
    5        1.831   1.403   0.264   3.497
    6        1.831   1.403   0.264   3.497
    7        1.831   1.403   0.264   3.497
    8        1.831   1.403   0.264   3.497
    9        1.833   1.390   0.261   3.484
   10        1.833   1.390   0.261   3.484
   11        1.833   1.390   0.261   3.484
   12        1.833   1.390   0.261   3.484
   13        1.833   1.390   0.261   3.484
   14        1.833   1.390   0.261   3.484
   15        1.833   1.390   0.261   3.484
   16        1.833   1.390   0.261   3.484
   17        1.833   1.390   0.261   3.484
   18        1.833   1.390   0.261   3.484
   19        1.833   1.390   0.261   3.484
   20        1.833   1.390   0.261   3.484
   21        1.833   1.390   0.261   3.484
   22        1.833   1.390   0.261   3.484
   23        1.833   1.390   0.261   3.484
   24        1.833   1.390   0.261   3.484
   25        1.833   1.390   0.261   3.484
   26        1.833   1.390   0.261   3.484
   27        1.833   1.390   0.261   3.484
   28        1.833   1.390   0.261   3.484
   29        1.833   1.390   0.261   3.484
   30        1.833   1.390   0.261   3.484
   31        1.833   1.390   0.261   3.484
   32        1.833   1.390   0.261   3.484
   33        1.576   3.388   0.000   4.964
   34        1.576   3.388   0.000   4.964
   35        1.576   3.388   0.000   4.964
   36        1.576   3.388   0.000   4.964
   37        1.576   3.388   0.000   4.964
   38        1.576   3.388   0.000   4.964
   39        1.576   3.388   0.000   4.964
   40        1.576   3.388   0.000   4.964
   41        1.576   3.388   0.000   4.964
   42        1.576   3.388   0.000   4.964
   43        1.576   3.388   0.000   4.964
   44        1.576   3.388   0.000   4.964
   45        1.576   3.388   0.000   4.964
   46        1.576   3.388   0.000   4.964
   47        1.576   3.388   0.000   4.964
   48        1.576   3.388   0.000   4.964
   49        1.576   3.388   0.000   4.964
   50        1.576   3.388   0.000   4.964
   51        1.576   3.388   0.000   4.964
   52        1.576   3.388   0.000   4.964
   53        1.576   3.388   0.000   4.964
   54        1.576   3.388   0.000   4.964
   55        1.576   3.388   0.000   4.964
   56        1.576   3.388   0.000   4.964
   57        1.574   3.384   0.000   4.959
   58        1.574   3.384   0.000   4.959
   59        1.574   3.384   0.000   4.959
   60        1.574   3.384   0.000   4.959
   61        1.574   3.384   0.000   4.959
   62        1.574   3.384   0.000   4.959
   63        1.574   3.384   0.000   4.959
   64        1.574   3.384   0.000   4.959
   65        1.574   3.384   0.000   4.959
   66        1.574   3.384   0.000   4.959
   67        1.574   3.384   0.000   4.959
   68        1.574   3.384   0.000   4.959
   69        1.574   3.384   0.000   4.959
   70        1.574   3.384   0.000   4.959
   71        1.574   3.384   0.000   4.959
   72        1.574   3.384   0.000   4.959
   73        1.574   3.384   0.000   4.959
   74        1.574   3.384   0.000   4.959
   75        1.574   3.384   0.000   4.959
   76        1.574   3.384   0.000   4.959
   77        1.574   3.384   0.000   4.959
   78        1.574   3.384   0.000   4.959
   79        1.574   3.384   0.000   4.959
   80        1.574   3.384   0.000   4.959
--------------------------------------------------
tot        134.230 207.145   8.363 349.738
 
 BZINTS: Fermi energy:    4.065407;  448.000000 electrons
         Band energy:-0.101762E+04;  BLOECHL correction:    0.000000

 total amount of memory used by VASP MPI-rank0   100416. kBytes
=======================================================================

   base      :      30000. kBytes
   nonlr-proj:      18401. kBytes
   fftplans  :       6161. kBytes
   grid      :       9391. kBytes
   one-center:         81. kBytes
   wavefun   :      36382. kBytes
 
  
  
 General timing and accounting informations for this job:
 ========================================================
  
                  Total CPU time used (sec):      402.032
                            User time (sec):      396.299
                          System time (sec):        5.733
                         Elapsed time (sec):      475.563
  
                   Maximum memory used (kb):      377260.
                   Average memory used (kb):          N/A
  
                          Minor page faults:       159385
                          Major page faults:          285
                 Voluntary context switches:        49811
