unknown system                          
           1
    11.240753    0.000000    0.000000
     0.000000   11.240753    0.000000
     0.000000    0.000000   11.240753
   Bi   O 
    32    48
Direct configuration=     1
   0.24790896  0.75209104  0.25209104
   0.75209104  0.25209104  0.24790896
   0.25209104  0.24790896  0.75209104
   0.74790896  0.74790896  0.74790896
   0.75209104  0.24790896  0.74790896
   0.24790896  0.74790896  0.75209104
   0.74790896  0.75209104  0.24790896
   0.25209104  0.25209104  0.25209104
   0.24430440  0.47658513  0.99531942
   0.75569560  0.97658513  0.50468058
   0.25569560  0.52341487  0.49531942
   0.74430440  0.02341487  0.00468058
   0.99531942  0.24430440  0.47658513
   0.50468058  0.75569560  0.97658513
   0.49531942  0.25569560  0.52341487
   0.00468058  0.74430440  0.02341487
   0.47658513  0.99531942  0.24430440
   0.97658513  0.50468058  0.75569560
   0.52341487  0.49531942  0.25569560
   0.02341487  0.00468058  0.74430440
   0.75569560  0.52341487  0.00468058
   0.24430440  0.02341487  0.49531942
   0.74430440  0.47658513  0.50468058
   0.25569560  0.97658513  0.99531942
   0.00468058  0.75569560  0.52341487
   0.49531942  0.24430440  0.02341487
   0.50468058  0.74430440  0.47658513
   0.99531942  0.25569560  0.97658513
   0.52341487  0.00468058  0.75569560
   0.02341487  0.49531942  0.24430440
   0.47658513  0.50468058  0.74430440
   0.97658513  0.99531942  0.25569560
   0.36515715  0.11981694  0.08997368
   0.63484285  0.61981694  0.41002632
   0.13484285  0.88018306  0.58997368
   0.86515715  0.38018306  0.91002632
   0.08997368  0.36515715  0.11981694
   0.41002632  0.63484285  0.61981694
   0.58997368  0.13484285  0.88018306
   0.91002632  0.86515715  0.38018306
   0.11981694  0.08997368  0.36515715
   0.61981694  0.41002632  0.63484285
   0.88018306  0.58997368  0.13484285
   0.38018306  0.91002632  0.86515715
   0.63484285  0.88018306  0.91002632
   0.36515715  0.38018306  0.58997368
   0.86515715  0.11981694  0.41002632
   0.13484285  0.61981694  0.08997368
   0.91002632  0.63484285  0.88018306
   0.58997368  0.36515715  0.38018306
   0.41002632  0.86515715  0.11981694
   0.08997368  0.13484285  0.61981694
   0.88018306  0.91002632  0.63484285
   0.38018306  0.58997368  0.36515715
   0.11981694  0.41002632  0.86515715
   0.61981694  0.08997368  0.13484285
   0.82307455  0.60801705  0.63228593
   0.17692545  0.10801705  0.86771407
   0.67692545  0.39198295  0.13228593
   0.32307455  0.89198295  0.36771407
   0.63228593  0.82307455  0.60801705
   0.86771407  0.17692545  0.10801705
   0.13228593  0.67692545  0.39198295
   0.36771407  0.32307455  0.89198295
   0.60801705  0.63228593  0.82307455
   0.10801705  0.86771407  0.17692545
   0.39198295  0.13228593  0.67692545
   0.89198295  0.36771407  0.32307455
   0.17692545  0.39198295  0.36771407
   0.82307455  0.89198295  0.13228593
   0.32307455  0.60801705  0.86771407
   0.67692545  0.10801705  0.63228593
   0.36771407  0.17692545  0.39198295
   0.13228593  0.82307455  0.89198295
   0.86771407  0.32307455  0.60801705
   0.63228593  0.67692545  0.10801705
   0.39198295  0.36771407  0.17692545
   0.89198295  0.13228593  0.82307455
   0.60801705  0.86771407  0.32307455
   0.10801705  0.63228593  0.67692545
