Automatically generated mesh
      30
Reciprocal lattice
    0.00000000000000    0.00000000000000    0.00000000000000             1
    0.12500000000000    0.00000000000000    0.00000000000000             4
    0.25000000000000    0.00000000000000    0.00000000000000             4
    0.37500000000000    0.00000000000000    0.00000000000000             4
    0.50000000000000    0.00000000000000    0.00000000000000             2
    0.12500000000000    0.12500000000000    0.00000000000000             4
    0.25000000000000    0.12500000000000    0.00000000000000             8
    0.37500000000000    0.12500000000000    0.00000000000000             8
    0.50000000000000    0.12500000000000    0.00000000000000             4
    0.25000000000000    0.25000000000000    0.00000000000000             4
    0.37500000000000    0.25000000000000    0.00000000000000             8
    0.50000000000000    0.25000000000000    0.00000000000000             4
    0.37500000000000    0.37500000000000    0.00000000000000             4
    0.50000000000000    0.37500000000000    0.00000000000000             4
    0.50000000000000    0.50000000000000    0.00000000000000             1
    0.00000000000000   -0.00000000000000    0.33333333333334             2
    0.12500000000000    0.00000000000000    0.33333333333334             8
    0.25000000000000    0.00000000000000    0.33333333333334             8
    0.37500000000000    0.00000000000000    0.33333333333334             8
    0.50000000000000   -0.00000000000000    0.33333333333334             4
    0.12500000000000    0.12500000000000    0.33333333333334             8
    0.25000000000000    0.12500000000000    0.33333333333334            16
    0.37500000000000    0.12500000000000    0.33333333333334            16
    0.50000000000000    0.12500000000000    0.33333333333334             8
    0.25000000000000    0.25000000000000    0.33333333333334             8
    0.37500000000000    0.25000000000000    0.33333333333334            16
    0.50000000000000    0.25000000000000    0.33333333333334             8
    0.37500000000000    0.37500000000000    0.33333333333334             8
    0.50000000000000    0.37500000000000    0.33333333333334             8
    0.50000000000000    0.50000000000000    0.33333333333334             2
Tetrahedra
       292    0.00086805555556
         4         1         2         6        16
         4         2         6        16        17
         4         6        16        17        21
         4         2         3         7        17
         4         2         6         7        17
         4         6         7        17        21
         4         3         7        17        18
         4         7        17        18        22
         4         7        17        21        22
         4         3         4         8        18
         4         3         7         8        18
         4         7         8        18        22
         4         4         8        18        19
         4         8        18        19        23
         4         8        18        22        23
         4         4         5         9        19
         4         4         8         9        19
         4         8         9        19        23
         4         5         9        19        20
         4         9        19        20        24
         4         9        19        23        24
         4         4         5         8        20
         4         5         8         9        20
         4         8         9        20        24
         4         4         8        19        20
         4         8        19        20        23
         4         8        20        23        24
         4         3         4         7        19
         4         4         7         8        19
         4         7         8        19        23
         4         3         7        18        19
         4         7        18        19        22
         4         7        19        22        23
         4         2         3         6        18
         4         3         6         7        18
         4         6         7        18        22
         4         2         6        17        18
         4         6        17        18        21
         4         6        18        21        22
         4         1         2         2        17
         4         2         2         6        17
         4         2         6        17        21
         4         1         2        16        17
         4         2        16        17        17
         4         2        17        17        21
         4         6         7        10        21
         4         7        10        21        22
         4        10        21        22        25
         4         7         8        11        22
         4         7        10        11        22
         4        10        11        22        25
         4         8        11        22        23
         4        11        22        23        26
         4        11        22        25        26
         4         8         9        12        23
         4         8        11        12        23
         4        11        12        23        26
         4         9        12        23        24
         4        12        23        24        27
         4        12        23        26        27
         4         8         9        11        24
         4         9        11        12        24
         4        11        12        24        27
         4         8        11        23        24
         4        11        23        24        26
         4        11        24        26        27
         4         7         8        10        23
         4         8        10        11        23
         4        10        11        23        26
         4         7        10        22        23
         4        10        22        23        25
         4        10        23        25        26
         4         6         7         7        22
         4         7         7        10        22
         4         7        10        22        25
         4         6         7        21        22
         4         7        21        22        22
         4         7        22        22        25
         4         2         3         6        21
         4         3         6         7        21
         4         3         7        21        22
         4         2         3        17        21
         4         3        17        18        21
         4         3        18        21        22
         4        10        11        13        25
         4        11        13        25        26
         4        13        25        26        28
         4        11        12        14        26
         4        11        13        14        26
         4        13        14        26        28
         4        12        14        26        27
         4        14        26        27        29
         4        14        26        28        29
         4        11        12        13        27
         4        12        13        14        27
         4        13        14        27        29
         4        11        13        26        27
         4        13        26        27        28
         4        13        27        28        29
         4        10        11        11        26
         4        11        11        13        26
         4        11        13        26        28
         4        10        11        25        26
         4        11        25        26        26
         4        11        26        26        28
         4         7         8        10        25
         4         8        10        11        25
         4         8        11        25        26
         4         7         8        22        25
         4         8        22        23        25
         4         8        23        25        26
         4         3         4         7        22
         4         4         7         8        22
         4         4         8        22        23
         4         3         4        18        22
         4         4        18        19        22
         4         4        19        22        23
         4        13        14        15        28
         4        14        15        28        29
         4        15        28        29        30
         4        13        14        14        29
         4        14        14        15        29
         4        14        15        29        30
         4        13        14        28        29
         4        14        28        29        29
         4        14        29        29        30
         4        11        12        13        28
         4        12        13        14        28
         4        12        14        28        29
         4        11        12        26        28
         4        12        26        27        28
         4        12        27        28        29
         4         8         9        11        26
         4         9        11        12        26
         4         9        12        26        27
         4         8         9        23        26
         4         9        23        24        26
         4         9        24        26        27
         4         4         5         8        23
         4         5         8         9        23
         4         5         9        23        24
         4         4         5        19        23
         4         5        19        20        23
         4         5        20        23        24
         4        13        14        15        30
         4        13        14        29        30
         4        13        28        29        30
         4        11        12        14        29
         4        11        13        14        29
         4        11        13        28        29
         4        11        12        27        29
         4        11        26        27        29
         4        11        26        28        29
         4         8         9        12        27
         4         8        11        12        27
         4         8        11        26        27
         4         8         9        24        27
         4         8        23        24        27
         4         8        23        26        27
         4         4         5         9        24
         4         4         8         9        24
         4         4         8        23        24
         4         4         5        20        24
         4         4        19        20        24
         4         4        19        23        24
         4        10        11        13        28
         4        10        11        26        28
         4        10        25        26        28
         4         7         8        11        26
         4         7        10        11        26
         4         7        10        25        26
         4         7         8        23        26
         4         7        22        23        26
         4         7        22        25        26
         4         3         4         8        23
         4         3         7         8        23
         4         3         7        22        23
         4         3         4        19        23
         4         3        18        19        23
         4         3        18        22        23
         4         6         7        10        25
         4         6         7        22        25
         4         6        21        22        25
         4         2         3         7        22
         4         2         6         7        22
         4         2         6        21        22
         4         2         3        18        22
         4         2        17        18        22
         4         2        17        21        22
         4         1         2         6        21
         4         1         2        17        21
         4         1        16        17        21
         4        16        16        17        21
         4        16        17        17        21
         4        16        17        21        21
         4        17        17        18        22
         4        17        17        21        22
         4        17        21        21        22
         4        17        18        18        22
         4        17        18        22        22
         4        17        21        22        22
         4        18        18        19        23
         4        18        18        22        23
         4        18        22        22        23
         4        18        19        19        23
         4        18        19        23        23
         4        18        22        23        23
         4        19        19        20        24
         4        19        19        23        24
         4        19        23        23        24
         4        19        20        20        24
         4        19        20        24        24
         4        19        23        24        24
         4        19        20        20        23
         4        20        20        23        24
         4        20        23        24        24
         4        19        19        20        23
         4        19        20        23        23
         4        20        23        23        24
         4        18        19        19        22
         4        19        19        22        23
         4        19        22        23        23
         4        18        18        19        22
         4        18        19        22        22
         4        19        22        22        23
         4        17        18        18        21
         4        18        18        21        22
         4        18        21        22        22
         4        17        17        18        21
         4        17        18        21        21
         4        18        21        21        22
         4        16        17        17        17
         4        17        17        17        21
         2        17        17        21        21
         2        16        16        17        17
         4        21        21        22        25
         4        21        22        22        25
         4        21        22        25        25
         4        22        22        23        26
         4        22        22        25        26
         4        22        25        25        26
         4        22        23        23        26
         4        22        23        26        26
         4        22        25        26        26
         4        23        23        24        27
         4        23        23        26        27
         4        23        26        26        27
         4        23        24        24        27
         4        23        24        27        27
         4        23        26        27        27
         4        23        24        24        26
         4        24        24        26        27
         4        24        26        27        27
         4        23        23        24        26
         4        23        24        26        26
         4        24        26        26        27
         4        22        23        23        25
         4        23        23        25        26
         4        23        25        26        26
         4        22        22        23        25
         4        22        23        25        25
         4        23        25        25        26
         4        21        22        22        22
         4        22        22        22        25
         2        22        22        25        25
         2        21        21        22        22
         4        25        25        26        28
         4        25        26        26        28
         4        25        26        28        28
         4        26        26        27        29
         4        26        26        28        29
         4        26        28        28        29
         4        26        27        27        29
         4        26        27        29        29
         4        26        28        29        29
         4        26        27        27        28
         4        27        27        28        29
         4        27        28        29        29
         4        26        26        27        28
         4        26        27        28        28
         4        27        28        28        29
         4        25        26        26        26
         4        26        26        26        28
         2        26        26        28        28
         2        25        25        26        26
         4        28        28        29        30
         4        28        29        29        30
         4        28        29        30        30
         4        28        29        29        29
         4        29        29        29        30
         2        29        29        30        30
         2        28        28        29        29
