 ----------------------------------------------------
    OOO  PPPP  EEEEE N   N M   M PPPP
   O   O P   P E     NN  N MM MM P   P
   O   O PPPP  EEEEE N N N M M M PPPP   -- VERSION
   O   O P     E     N  NN M   M P
    OOO  P     EEEEE N   N M   M P
 ----------------------------------------------------
 running   64 mpi-ranks, with    1 threads/rank
 distrk:  each k-point on   64 cores,    1 groups
 distr:  one band on    8 cores,    8 groups
 vasp.6.3.0 20Jan22 (build Jan 28 2022 00:43:23) complex                        
  
 POSCAR found type information on POSCAR SbS O 
 POSCAR found :  3 types and      52 ions
 scaLAPACK will be used
 LDA part: xc-table for Pade appr. of Perdew
 WARNING: stress and forces are not correct
 POSCAR, INCAR and KPOINTS ok, starting setup
 FFT: planning ... GRIDC
 FFT: planning ... GRID_SOFT
 FFT: planning ... GRID
 WAVECAR not read
 charge-density read from file: unknown                                 
 entering main loop
       N       E                     dE             d eps       ncg     rms          rms(c)
DAV:   1     0.267449900005E+04    0.26745E+04   -0.16176E+05 11096   0.170E+03
DAV:   2    -0.515140724006E+02   -0.27260E+04   -0.26361E+04 14208   0.342E+02
DAV:   3    -0.306451469731E+03   -0.25494E+03   -0.25131E+03 12208   0.122E+02
DAV:   4    -0.312965152932E+03   -0.65137E+01   -0.64828E+01 13312   0.195E+01
DAV:   5    -0.313210225477E+03   -0.24507E+00   -0.24493E+00 14944   0.348E+00
RMM:   6    -0.313213583146E+03   -0.33577E-02   -0.33577E-02 11458   0.501E-01
RMM:   7    -0.313214901965E+03   -0.13188E-02   -0.13147E-02 15216   0.199E-01
RMM:   8    -0.313214986204E+03   -0.84239E-04   -0.91685E-04 15318   0.636E-02
RMM:   9    -0.313215003654E+03   -0.17450E-04   -0.17674E-04 14909   0.164E-02
RMM:  10    -0.313215004004E+03   -0.35029E-06   -0.60338E-06  9908   0.511E-03
   1 F= -.32157334E+03 E0= -.32157334E+03  d E =0.000000E+00
