 vasp.6.3.0 20Jan22 (build Jan 28 2022 00:43:23) complex                        
  
 executed on             LinuxIFC date 2025.07.23  13:41:17
 running   64 mpi-ranks, with    1 threads/rank
 distrk:  each k-point on   64 cores,    1 groups
 distr:  one band on NCORE=   8 cores,    8 groups


--------------------------------------------------------------------------------------------------------


 INCAR:
   ALGO = Fast
   ICHARG = 11
   LORBIT = 11
   NEDOS = 4000
   ENCUT = 600
   ISMEAR = -5
   EDIFF = 1.0E-6
   PREC = Accurate
   NELM = 200
   NELMIN = 5
   MAGMOM = 52*0.6
   ISPIN = 1
   LMAXMIX = 4
   LASPH = True
   IVDW = 12
   LWAVE = .FALSE.
   LCHARG = .FALSE.
   LREAL = Auto
   NPAR = 8

 POTCAR:    PAW_PBE Sb 06Sep2000                  
 POTCAR:    PAW_PBE S 06Sep2000                   
 POTCAR:    PAW_PBE O 08Apr2002                   
 POTCAR:    PAW_PBE Sb 06Sep2000                  
   VRHFIN =Sb: s2p3                                                                                 
   LEXCH  = PE                                                                                      
   EATOM  =   149.9515 eV,   11.0211 Ry                                                             
                                                                                                    
   TITEL  = PAW_PBE Sb 06Sep2000                                                                    
   LULTRA =        F    use ultrasoft PP ?                                                          
   IUNSCR =        1    unscreen: 0-lin 1-nonlin 2-no                                               
   RPACOR =    2.200    partial core radius                                                         
   POMASS =  121.750; ZVAL   =    5.000    mass and valenz                                          
   RCORE  =    2.300    outmost cutoff radius                                                       
   RWIGS  =    2.980; RWIGS  =    1.577    wigner-seitz radius (au A)                               
   ENMAX  =  172.069; ENMIN  =  129.052 eV                                                          
   ICORE  =        3    local potential                                                             
   LCOR   =        T    correct aug charges                                                         
   LPAW   =        T    paw PP                                                                      
   EAUG   =  380.513                                                                                
   DEXC   =    0.000                                                                                
   RMAX   =    2.346    core radius for proj-oper                                                   
   RAUG   =    1.300    factor for augmentation sphere                                              
   RDEP   =    2.360    radius for radial grids                                                     
   RDEPT  =    2.192    core radius for aug-charge                                                  
                                                                                                    
   Atomic configuration                                                                             
   13 entries                                                                                       
     n  l   j            E        occ.                                                              
     1  0  0.50    -30298.2797   2.0000                                                             
     2  0  0.50     -4610.2252   2.0000                                                             
     2  1  1.50     -4138.3407   6.0000                                                             
     3  0  0.50      -903.8815   2.0000                                                             
     3  1  1.50      -750.1337   6.0000                                                             
     3  2  2.50      -515.7092  10.0000                                                             
     4  0  0.50      -148.8034   2.0000                                                             
     4  1  1.50      -101.7581   6.0000                                                             
     4  2  2.50       -33.5048  10.0000                                                             
     5  0  0.50       -12.8298   2.0000                                                             
     5  1  0.50        -4.8276   3.0000                                                             
     5  2  1.50        -4.0817   0.0000                                                             
     4  3  2.50        -4.0817   0.0000                                                             
   Description                                                                                      
     l       E           TYP  RCUT    TYP  RCUT                                                     
     0    -12.8297861     23  2.300                                                                 
     0     13.6058260     23  2.300                                                                 
     1     -4.8275512     23  2.300                                                                 
     1     -0.7245443     23  2.300                                                                 
     2     -4.0817478     23  2.300                                                                 
     3     -1.3605826     23  2.300                                                                 
  local pseudopotential read in
  partial core-charges read in
  partial kinetic energy density read in
  atomic valenz-charges read in
  non local Contribution for L=           0  read in
    real space projection operators read in
  non local Contribution for L=           0  read in
    real space projection operators read in
  non local Contribution for L=           1  read in
    real space projection operators read in
  non local Contribution for L=           1  read in
    real space projection operators read in
  non local Contribution for L=           2  read in
    real space projection operators read in
    PAW grid and wavefunctions read in
 
   number of l-projection  operators is LMAX  =           5
   number of lm-projection operators is LMMAX =          13
 
 POTCAR:    PAW_PBE S 06Sep2000                   
   VRHFIN =S : s2p4                                                                                 
   LEXCH  = PE                                                                                      
   EATOM  =   276.8230 eV,   20.3459 Ry                                                             
                                                                                                    
   TITEL  = PAW_PBE S 06Sep2000                                                                     
   LULTRA =        F    use ultrasoft PP ?                                                          
   IUNSCR =        1    unscreen: 0-lin 1-nonlin 2-no                                               
   RPACOR =    1.500    partial core radius                                                         
   POMASS =   32.066; ZVAL   =    6.000    mass and valenz                                          
   RCORE  =    1.900    outmost cutoff radius                                                       
   RWIGS  =    2.200; RWIGS  =    1.164    wigner-seitz radius (au A)                               
   ENMAX  =  258.689; ENMIN  =  194.016 eV                                                          
   ICORE  =        2    local potential                                                             
   LCOR   =        T    correct aug charges                                                         
   LPAW   =        T    paw PP                                                                      
   EAUG   =  335.092                                                                                
   DEXC   =    0.000                                                                                
   RMAX   =    1.942    core radius for proj-oper                                                   
   RAUG   =    1.300    factor for augmentation sphere                                              
   RDEP   =    1.954    radius for radial grids                                                     
   RDEPT  =    1.744    core radius for aug-charge                                                  
                                                                                                    
   Atomic configuration                                                                             
    6 entries                                                                                       
     n  l   j            E        occ.                                                              
     1  0  0.50     -2405.8406   2.0000                                                             
     2  0  0.50      -211.7007   2.0000                                                             
     2  1  1.50      -156.4958   6.0000                                                             
     3  0  0.50       -17.2562   2.0000                                                             
     3  1  0.50        -7.0085   4.0000                                                             
     3  2  1.50        -6.8029   0.0000                                                             
   Description                                                                                      
     l       E           TYP  RCUT    TYP  RCUT                                                     
     0    -17.2561641     23  1.900                                                                 
     0    -15.8743224     23  1.900                                                                 
     1     -7.0085400     23  1.900                                                                 
     1     -2.7779785     23  1.900                                                                 
     2     -6.8029130     23  1.900                                                                 
  local pseudopotential read in
  partial core-charges read in
  partial kinetic energy density read in
  atomic valenz-charges read in
  non local Contribution for L=           0  read in
    real space projection operators read in
  non local Contribution for L=           0  read in
    real space projection operators read in
  non local Contribution for L=           1  read in
    real space projection operators read in
  non local Contribution for L=           1  read in
    real space projection operators read in
    PAW grid and wavefunctions read in
 
   number of l-projection  operators is LMAX  =           4
   number of lm-projection operators is LMMAX =           8
 
 POTCAR:    PAW_PBE O 08Apr2002                   
   VRHFIN =O: s2p4                                                                                  
   LEXCH  = PE                                                                                      
   EATOM  =   432.3788 eV,   31.7789 Ry                                                             
                                                                                                    
   TITEL  = PAW_PBE O 08Apr2002                                                                     
   LULTRA =        F    use ultrasoft PP ?                                                          
   IUNSCR =        1    unscreen: 0-lin 1-nonlin 2-no                                               
   RPACOR =    1.200    partial core radius                                                         
   POMASS =   16.000; ZVAL   =    6.000    mass and valenz                                          
   RCORE  =    1.520    outmost cutoff radius                                                       
   RWIGS  =    1.550; RWIGS  =    0.820    wigner-seitz radius (au A)                               
   ENMAX  =  400.000; ENMIN  =  300.000 eV                                                          
   ICORE  =        2    local potential                                                             
   LCOR   =        T    correct aug charges                                                         
   LPAW   =        T    paw PP                                                                      
   EAUG   =  605.392                                                                                
   DEXC   =    0.000                                                                                
   RMAX   =    1.553    core radius for proj-oper                                                   
   RAUG   =    1.300    factor for augmentation sphere                                              
   RDEP   =    1.550    radius for radial grids                                                     
   RDEPT  =    1.329    core radius for aug-charge                                                  
                                                                                                    
   Atomic configuration                                                                             
    4 entries                                                                                       
     n  l   j            E        occ.                                                              
     1  0  0.50      -514.6923   2.0000                                                             
     2  0  0.50       -23.9615   2.0000                                                             
     2  1  0.50        -9.0305   4.0000                                                             
     3  2  1.50        -9.5241   0.0000                                                             
   Description                                                                                      
     l       E           TYP  RCUT    TYP  RCUT                                                     
     0    -23.9615318     23  1.200                                                                 
     0     -9.5240782     23  1.200                                                                 
     1     -9.0304911     23  1.520                                                                 
     1      8.1634956     23  1.520                                                                 
     2     -9.5240782      7  1.500                                                                 
  local pseudopotential read in
  partial core-charges read in
  partial kinetic energy density read in
  kinetic energy density of atom read in
  atomic valenz-charges read in
  non local Contribution for L=           0  read in
    real space projection operators read in
  non local Contribution for L=           0  read in
    real space projection operators read in
  non local Contribution for L=           1  read in
    real space projection operators read in
  non local Contribution for L=           1  read in
    real space projection operators read in
    PAW grid and wavefunctions read in
 
   number of l-projection  operators is LMAX  =           4
   number of lm-projection operators is LMMAX =           8
 
 Optimization of the real space projectors (new method)

 maximal supplied QI-value         = 16.25
 optimisation between [QCUT,QGAM] = [ 12.51, 25.03] = [ 43.85,175.40] Ry 
 Optimized for a Real-space Cutoff    1.27 Angstroem

   l    n(q)    QCUT    max X(q) W(low)/X(q) W(high)/X(q)  e(spline) 
   0     10    12.514    19.000    0.11E-03    0.67E-04    0.94E-07
   0     10    12.514     9.057    0.13E-03    0.83E-04    0.11E-06
   1      9    12.514   125.345    0.77E-04    0.26E-03    0.21E-06
   1      9    12.514    79.963    0.77E-04    0.25E-03    0.21E-06
   2      9    12.514     6.963    0.99E-04    0.73E-04    0.55E-07
 Optimization of the real space projectors (new method)

 maximal supplied QI-value         = 19.84
 optimisation between [QCUT,QGAM] = [ 12.50, 25.00] = [ 43.76,175.03] Ry 
 Optimized for a Real-space Cutoff    1.20 Angstroem

   l    n(q)    QCUT    max X(q) W(low)/X(q) W(high)/X(q)  e(spline) 
   0      9    12.501   187.594    0.48E-04    0.69E-04    0.85E-07
   0      9    12.501   164.243    0.48E-04    0.68E-04    0.84E-07
   1      8    12.501    67.533    0.11E-03    0.13E-03    0.89E-07
   1      8    12.501    50.729    0.11E-03    0.13E-03    0.87E-07
 Optimization of the real space projectors (new method)

 maximal supplied QI-value         = 24.76
 optimisation between [QCUT,QGAM] = [ 12.38, 25.00] = [ 42.90,175.06] Ry 
 Optimized for a Real-space Cutoff    1.16 Angstroem

   l    n(q)    QCUT    max X(q) W(low)/X(q) W(high)/X(q)  e(spline) 
   0      9    12.378    20.381    0.16E-03    0.67E-05    0.31E-06
   0      9    12.378    15.268    0.17E-03    0.81E-05    0.33E-06
   1      8    12.378     5.964    0.20E-03    0.16E-03    0.30E-06
   1      8    12.378     5.382    0.18E-03    0.14E-03    0.26E-06
  PAW_PBE Sb 06Sep2000                  :
 energy of atom  1       EATOM= -149.9515
 kinetic energy error for atom=    0.0003 (will be added to EATOM!!)
  PAW_PBE S 06Sep2000                   :
 energy of atom  2       EATOM= -276.8230
 kinetic energy error for atom=    0.0009 (will be added to EATOM!!)
  PAW_PBE O 08Apr2002                   :
 energy of atom  3       EATOM= -432.3788
 kinetic energy error for atom=    0.0168 (will be added to EATOM!!)
 
 
 POSCAR: Sb8 S8 O36
  positions in direct lattice
  velocities in cartesian coordinates
 exchange correlation table for  LEXCH =        8
   RHO(1)=    0.500       N(1)  =     2000
   RHO(2)=  100.500       N(2)  =     4000
 


--------------------------------------------------------------------------------------------------------


 ion  position               nearest neighbor table
   1  0.845  0.986  0.345-  26 1.95  29 2.15  41 2.21  27 2.43  31 2.61   4 3.61
   2  0.986  0.845  0.655-  51 1.95  49 2.15  18 2.21  17 2.43  43 2.61   3 3.61
   3  0.155  0.014  0.845-  51 1.95  28 2.15  23 2.21  25 2.43  20 2.61   2 3.61
   4  0.014  0.155  0.155-  26 1.95  30 2.15  45 2.21  34 2.43  37 2.61   1 3.61
   5  0.514  0.345  0.595-  22 1.95  42 2.15  35 2.21  36 2.43  32 2.61   8 3.61
   6  0.655  0.486  0.905-  39 1.95  19 2.15  52 2.21  50 2.43  38 2.61   7 3.61
   7  0.486  0.655  0.095-  39 1.95  40 2.15  46 2.21  33 2.43  21 2.61   6 3.61
   8  0.345  0.514  0.405-  22 1.95  48 2.15  44 2.21  24 2.43  47 2.61   5 3.61
   9  0.354  0.033  0.303-  31 1.47  24 1.49  45 1.49  29 1.51
  10  0.033  0.354  0.697-  43 1.47  36 1.49  23 1.49  49 1.51
  11  0.467  0.854  0.553-  32 1.47  17 1.49  44 1.49  42 1.51
  12  0.146  0.533  0.947-  38 1.47  25 1.49  46 1.49  19 1.51
  13  0.533  0.146  0.053-  21 1.47  34 1.49  52 1.49  40 1.51
  14  0.967  0.646  0.197-  37 1.47  33 1.49  41 1.49  30 1.51
  15  0.854  0.467  0.447-  47 1.47  27 1.49  35 1.49  48 1.51
  16  0.646  0.967  0.803-  20 1.47  50 1.49  18 1.49  28 1.51
  17  0.304  0.958  0.598-  11 1.49   2 2.43
  18  0.708  0.888  0.725-  16 1.49   2 2.21
  19  0.330  0.461  0.902-  12 1.51   6 2.15
  20  0.507  0.139  0.794-  16 1.47   3 2.61
  21  0.361  0.007  0.044-  13 1.47   7 2.61
  22  0.352  0.352  0.500-   8 1.95   5 1.95
  23  0.112  0.292  0.775-  10 1.49   3 2.21
  24  0.458  0.196  0.348-   9 1.49   8 2.43
  25  0.042  0.696  0.902-  12 1.49   3 2.43
  26  0.852  0.148  0.250-   4 1.95   1 1.95
  27  0.958  0.304  0.402-  15 1.49   1 2.43
  28  0.830  0.039  0.848-  16 1.51   3 2.15
  29  0.170  0.961  0.348-   9 1.51   1 2.15
  30  0.039  0.830  0.152-  14 1.51   4 2.15
  31  0.493  0.861  0.294-   9 1.47   1 2.61
  32  0.639  0.993  0.544-  11 1.47   5 2.61
  33  0.804  0.542  0.152-  14 1.49   7 2.43
  34  0.696  0.042  0.098-  13 1.49   4 2.43
  35  0.792  0.388  0.525-  15 1.49   5 2.21
  36  0.196  0.458  0.652-  10 1.49   5 2.43
  37  0.139  0.507  0.206-  14 1.47   4 2.61
  38  0.007  0.361  0.956-  12 1.47   6 2.61
  39  0.648  0.648  0.000-   6 1.95   7 1.95
  40  0.461  0.330  0.098-  13 1.51   7 2.15
  41  0.888  0.708  0.275-  14 1.49   1 2.21
  42  0.539  0.670  0.598-  11 1.51   5 2.15
  43  0.861  0.493  0.706-  10 1.47   2 2.61
  44  0.388  0.792  0.475-  11 1.49   8 2.21
  45  0.292  0.112  0.225-   9 1.49   4 2.21
  46  0.208  0.612  0.025-  12 1.49   7 2.21
  47  0.993  0.639  0.456-  15 1.47   8 2.61
  48  0.670  0.539  0.402-  15 1.51   8 2.15
  49  0.961  0.170  0.652-  10 1.51   2 2.15
  50  0.542  0.804  0.848-  16 1.49   6 2.43
  51  0.148  0.852  0.750-   3 1.95   2 1.95
  52  0.612  0.208  0.975-  13 1.49   6 2.21
 
  LATTYP: Found a simple tetragonal cell.
 ALAT       =     6.5998788593
 C/A-ratio  =     2.5855705790
  
  Lattice vectors:
  
 A1 = (   6.5998788593,   0.0000000000,   0.0000000000)
 A2 = (   0.0000000000,   6.5998788593,   0.0000000000)
 A3 = (   0.0000000000,   0.0000000000,  17.0644526032)


Analysis of symmetry for initial positions (statically):
=====================================================================
 Subroutine PRICEL returns:
 Original cell was already a primitive cell.
 

 Routine SETGRP: Setting up the symmetry group for a 
 simple tetragonal supercell.


 Subroutine GETGRP returns: Found  8 space group operations
 (whereof  2 operations were pure point group operations)
 out of a pool of 16 trial point group operations.


The static configuration has the point symmetry C_2 .
 The point group associated with its full space group is D_4 .


Analysis of symmetry for dynamics (positions and initial velocities):
=====================================================================
 Subroutine PRICEL returns:
 Original cell was already a primitive cell.
 

 Routine SETGRP: Setting up the symmetry group for a 
 simple tetragonal supercell.


 Subroutine GETGRP returns: Found  8 space group operations
 (whereof  2 operations were pure point group operations)
 out of a pool of 16 trial point group operations.


The dynamic configuration has the point symmetry C_2 .
 The point group associated with its full space group is D_4 .


 Subroutine INISYM returns: Found  8 space group operations
 (whereof  2 operations are pure point group operations),
 and found     1 'primitive' translations


----------------------------------------------------------------------------------------

                                     Primitive cell                                     

  volume of cell :     743.3003

  direct lattice vectors                    reciprocal lattice vectors
     6.599878859  0.000000000  0.000000000     0.151517933 -0.000000000  0.000000000
     0.000000000  6.599878859  0.000000000     0.000000000  0.151517933  0.000000000
     0.000000000  0.000000000 17.064452603    -0.000000000 -0.000000000  0.058601352

  length of vectors
     6.599878859  6.599878859 17.064452603     0.151517933  0.151517933  0.058601352

  position of ions in fractional coordinates (direct lattice)
     0.845375978  0.986029193  0.345250507
     0.986029193  0.845375978  0.654749493
     0.154624022  0.013970807  0.845250507
     0.013970807  0.154624022  0.154749493
     0.513970807  0.345375978  0.595250507
     0.654624022  0.486029193  0.904749493
     0.486029193  0.654624022  0.095250507
     0.345375978  0.513970807  0.404749493
     0.353508635  0.033229321  0.303032837
     0.033229321  0.353508635  0.696967163
     0.466770679  0.853508635  0.553032837
     0.146491365  0.533229321  0.946967163
     0.533229321  0.146491365  0.053032837
     0.966770679  0.646491365  0.196967163
     0.853508635  0.466770679  0.446967163
     0.646491365  0.966770679  0.803032837
     0.303803088  0.957636539  0.597832835
     0.708348506  0.888329307  0.724726167
     0.329873122  0.461195856  0.902222158
     0.506545938  0.139176789  0.794176270
     0.360823211  0.006545938  0.044176270
     0.351646185  0.351646185  0.500000000
     0.111670693  0.291651494  0.775273833
     0.457636539  0.196196912  0.347832835
     0.042363461  0.696196912  0.902167165
     0.851646185  0.148353815  0.250000000
     0.957636539  0.303803088  0.402167165
     0.829873122  0.038804144  0.847777842
     0.170126878  0.961195856  0.347777842
     0.038804144  0.829873122  0.152222158
     0.493454062  0.860823211  0.294176270
     0.639176789  0.993454062  0.544176270
     0.803803088  0.542363461  0.152167165
     0.696196912  0.042363461  0.097832835
     0.791651494  0.388329307  0.525273833
     0.196196912  0.457636539  0.652167165
     0.139176789  0.506545938  0.205823730
     0.006545938  0.360823211  0.955823730
     0.648353815  0.648353815  0.000000000
     0.461195856  0.329873122  0.097777842
     0.888329307  0.708348506  0.275273833
     0.538804144  0.670126878  0.597777842
     0.860823211  0.493454062  0.705823730
     0.388329307  0.791651494  0.474726167
     0.291651494  0.111670693  0.224726167
     0.208348506  0.611670693  0.025273833
     0.993454062  0.639176789  0.455823730
     0.670126878  0.538804144  0.402222158
     0.961195856  0.170126878  0.652222158
     0.542363461  0.803803088  0.847832835
     0.148353815  0.851646185  0.750000000
     0.611670693  0.208348506  0.974726167

  ion indices of the primitive-cell ions
   primitive index   ion index
                 1           1
                 2           2
                 3           3
                 4           4
                 5           5
                 6           6
                 7           7
                 8           8
                 9           9
                10          10
                11          11
                12          12
                13          13
                14          14
                15          15
                16          16
                17          17
                18          18
                19          19
                20          20
                21          21
                22          22
                23          23
                24          24
                25          25
                26          26
                27          27
                28          28
                29          29
                30          30
                31          31
                32          32
                33          33
                34          34
                35          35
                36          36
                37          37
                38          38
                39          39
                40          40
                41          41
                42          42
                43          43
                44          44
                45          45
                46          46
                47          47
                48          48
                49          49
                50          50
                51          51
                52          52

----------------------------------------------------------------------------------------

 
 
 KPOINTS: pymatgen with grid density = 3000 / numb

Automatic generation of k-mesh.
 Grid dimensions read from file:
 generate k-points for:    8    8    3

 Generating k-lattice:

  Cartesian coordinates                     Fractional coordinates (reciprocal lattice)
     0.018939742 -0.000000000  0.000000000     0.125000000  0.000000000  0.000000000
     0.000000000  0.018939742  0.000000000     0.000000000  0.125000000  0.000000000
    -0.000000000 -0.000000000  0.019533784     0.000000000  0.000000000  0.333333333

  Length of vectors
     0.018939742  0.018939742  0.019533784

  Shift w.r.t. Gamma in fractional coordinates (k-lattice)
     0.000000000  0.000000000  0.000000000

 TETIRR: Found    292 inequivalent tetrahedra from     1152
 
 Subroutine IBZKPT returns following result:
 ===========================================
 
 Found     30 irreducible k-points:
 
 Following reciprocal coordinates:
            Coordinates               Weight
  0.000000  0.000000  0.000000      1.000000
  0.125000  0.000000  0.000000      4.000000
  0.250000  0.000000  0.000000      4.000000
  0.375000  0.000000  0.000000      4.000000
  0.500000  0.000000  0.000000      2.000000
  0.125000  0.125000  0.000000      4.000000
  0.250000  0.125000  0.000000      8.000000
  0.375000  0.125000  0.000000      8.000000
  0.500000  0.125000  0.000000      4.000000
  0.250000  0.250000  0.000000      4.000000
  0.375000  0.250000  0.000000      8.000000
  0.500000  0.250000  0.000000      4.000000
  0.375000  0.375000  0.000000      4.000000
  0.500000  0.375000  0.000000      4.000000
  0.500000  0.500000  0.000000      1.000000
  0.000000 -0.000000  0.333333      2.000000
  0.125000  0.000000  0.333333      8.000000
  0.250000  0.000000  0.333333      8.000000
  0.375000  0.000000  0.333333      8.000000
  0.500000 -0.000000  0.333333      4.000000
  0.125000  0.125000  0.333333      8.000000
  0.250000  0.125000  0.333333     16.000000
  0.375000  0.125000  0.333333     16.000000
  0.500000  0.125000  0.333333      8.000000
  0.250000  0.250000  0.333333      8.000000
  0.375000  0.250000  0.333333     16.000000
  0.500000  0.250000  0.333333      8.000000
  0.375000  0.375000  0.333333      8.000000
  0.500000  0.375000  0.333333      8.000000
  0.500000  0.500000  0.333333      2.000000
 
 Following cartesian coordinates:
            Coordinates               Weight
  0.000000  0.000000  0.000000      1.000000
  0.018940 -0.000000  0.000000      4.000000
  0.037879 -0.000000  0.000000      4.000000
  0.056819 -0.000000  0.000000      4.000000
  0.075759 -0.000000  0.000000      2.000000
  0.018940  0.018940  0.000000      4.000000
  0.037879  0.018940  0.000000      8.000000
  0.056819  0.018940  0.000000      8.000000
  0.075759  0.018940  0.000000      4.000000
  0.037879  0.037879  0.000000      4.000000
  0.056819  0.037879  0.000000      8.000000
  0.075759  0.037879  0.000000      4.000000
  0.056819  0.056819  0.000000      4.000000
  0.075759  0.056819  0.000000      4.000000
  0.075759  0.075759  0.000000      1.000000
 -0.000000 -0.000000  0.019534      2.000000
  0.018940 -0.000000  0.019534      8.000000
  0.037879 -0.000000  0.019534      8.000000
  0.056819 -0.000000  0.019534      8.000000
  0.075759 -0.000000  0.019534      4.000000
  0.018940  0.018940  0.019534      8.000000
  0.037879  0.018940  0.019534     16.000000
  0.056819  0.018940  0.019534     16.000000
  0.075759  0.018940  0.019534      8.000000
  0.037879  0.037879  0.019534      8.000000
  0.056819  0.037879  0.019534     16.000000
  0.075759  0.037879  0.019534      8.000000
  0.056819  0.056819  0.019534      8.000000
  0.075759  0.056819  0.019534      8.000000
  0.075759  0.075759  0.019534      2.000000
 


--------------------------------------------------------------------------------------------------------




 Dimension of arrays:
   k-points           NKPTS =     30   k-points in BZ     NKDIM =     30   number of bands    NBANDS=    184
   number of dos      NEDOS =   4000   number of ions     NIONS =     52
   non local maximal  LDIM  =      5   non local SUM 2l+1 LMDIM =     13
   total plane-waves  NPLWV = 408240
   max r-space proj   IRMAX =   4747   max aug-charges    IRDMAX=  30676
   dimension x,y,z NGX =    54 NGY =   54 NGZ =  140
   dimension x,y,z NGXF=   108 NGYF=  108 NGZF=  280
   support grid    NGXF=   108 NGYF=  108 NGZF=  280
   ions per type =               8   8  36
   NGX,Y,Z   is equivalent  to a cutoff of  13.60, 13.60, 13.64 a.u.
   NGXF,Y,Z  is equivalent  to a cutoff of  27.20, 27.20, 27.28 a.u.

 SYSTEM =  unknown system                          
 POSCAR =  Sb8 S8 O36                              

 Startparameter for this run:
   NWRITE =      2    write-flag & timer
   PREC   = accura    normal or accurate (medium, high low for compatibility)
   ISTART =      0    job   : 0-new  1-cont  2-samecut
   ICHARG =     11    charge: 1-file 2-atom 10-const
   ISPIN  =      1    spin polarized calculation?
   LNONCOLLINEAR =      F non collinear calculations
   LSORBIT =      F    spin-orbit coupling
   INIWAV =      1    electr: 0-lowe 1-rand  2-diag
   LASPH  =      T    aspherical Exc in radial PAW
 Electronic Relaxation 1
   ENCUT  =  600.0 eV  44.10 Ry    6.64 a.u.  13.18 13.18 34.08*2*pi/ulx,y,z
   ENINI  =  600.0     initial cutoff
   ENAUG  =  605.4 eV  augmentation charge cutoff
   NELM   =    200;   NELMIN=  5; NELMDL= -5     # of ELM steps 
   EDIFF  = 0.1E-05   stopping-criterion for ELM
   LREAL  =      T    real-space projection
   NLSPLINE    = F    spline interpolate recip. space projectors
   LCOMPAT=      F    compatible to vasp.4.4
   GGA_COMPAT  = T    GGA compatible to vasp.4.4-vasp.4.6
   LMAXPAW     = -100 max onsite density
   LMAXMIX     =    4 max onsite mixed and CHGCAR
   VOSKOWN=      0    Vosko Wilk Nusair interpolation
   ROPT   =   -0.00025  -0.00025  -0.00025
 Ionic relaxation
   EDIFFG = 0.1E-04   stopping-criterion for IOM
   NSW    =      0    number of steps for IOM
   NBLOCK =      1;   KBLOCK =      1    inner block; outer block 
   IBRION =     -1    ionic relax: 0-MD 1-quasi-New 2-CG
   NFREE  =      0    steps in history (QN), initial steepest desc. (CG)
   ISIF   =      2    stress and relaxation
   IWAVPR =     10    prediction:  0-non 1-charg 2-wave 3-comb
   ISYM   =      2    0-nonsym 1-usesym 2-fastsym
   LCORR  =      T    Harris-Foulkes like correction to forces

   POTIM  = 0.5000    time-step for ionic-motion
   TEIN   =    0.0    initial temperature
   TEBEG  =    0.0;   TEEND  =   0.0 temperature during run
   SMASS  =  -3.00    Nose mass-parameter (am)
   estimated Nose-frequenzy (Omega)   =  0.10E-29 period in steps = 0.13E+47 mass=  -0.995E-27a.u.
   SCALEE = 1.0000    scale energy and forces
   NPACO  =    256;   APACO  = 10.0  distance and # of slots for P.C.
   PSTRESS=    0.0 pullay stress

  Mass of Ions in am
   POMASS = 121.75 32.07 16.00
  Ionic Valenz
   ZVAL   =   5.00  6.00  6.00
  Atomic Wigner-Seitz radii
   RWIGS  =  -1.00 -1.00 -1.00
  virtual crystal weights 
   VCA    =   1.00  1.00  1.00
   NELECT =     304.0000    total number of electrons
   NUPDOWN=      -1.0000    fix difference up-down

 DOS related values:
   EMIN   =  10.00;   EMAX   =-10.00  energy-range for DOS
   EFERMI =   0.00
   ISMEAR =    -5;   SIGMA  =   0.20  broadening in eV -4-tet -1-fermi 0-gaus

 Electronic relaxation 2 (details)
   IALGO  =     68    algorithm
   LDIAG  =      T    sub-space diagonalisation (order eigenvalues)
   LSUBROT=      F    optimize rotation matrix (better conditioning)
   TURBO    =      0    0=normal 1=particle mesh
   IRESTART =      0    0=no restart 2=restart with 2 vectors
   NREBOOT  =      0    no. of reboots
   NMIN     =      0    reboot dimension
   EREF     =   0.00    reference energy to select bands
   IMIX   =      4    mixing-type and parameters
     AMIX     =   0.40;   BMIX     =  1.00
     AMIX_MAG =   1.60;   BMIX_MAG =  1.00
     AMIN     =   0.10
     WC   =   100.;   INIMIX=   1;  MIXPRE=   1;  MAXMIX= -45

 Intra band minimization:
   WEIMIN = 0.0000     energy-eigenvalue tresh-hold
   EBREAK =  0.14E-08  absolut break condition
   DEPER  =   0.30     relativ break condition  

   TIME   =   0.40     timestep for ELM

  volume/ion in A,a.u.               =      14.29        96.46
  Fermi-wavevector in a.u.,A,eV,Ry     =   1.215191  2.296378 20.091581  1.476690
  Thomas-Fermi vector in A             =   2.350586
 
 Write flags
   LWAVE        =      F    write WAVECAR
   LDOWNSAMPLE  =      F    k-point downsampling of WAVECAR
   LCHARG       =      F    write CHGCAR
   LVTOT        =      F    write LOCPOT, total local potential
   LVHAR        =      F    write LOCPOT, Hartree potential only
   LELF         =      F    write electronic localiz. function (ELF)
   LORBIT       =     11    0 simple, 1 ext, 2 COOP (PROOUT), +10 PAW based schemes


 Dipole corrections
   LMONO  =      F    monopole corrections only (constant potential shift)
   LDIPOL =      F    correct potential (dipole corrections)
   IDIPOL =      0    1-x, 2-y, 3-z, 4-all directions 
   EPSILON=  1.0000000 bulk dielectric constant

 Exchange correlation treatment:
   GGA     =    --    GGA type
   LEXCH   =     8    internal setting for exchange type
   LIBXC   =     F    Libxc                    
   VOSKOWN =     0    Vosko Wilk Nusair interpolation
   LHFCALC =     F    Hartree Fock is set to
   LHFONE  =     F    Hartree Fock one center treatment
   AEXX    =    0.0000 exact exchange contribution

 Linear response parameters
   LEPSILON=     F    determine dielectric tensor
   LRPA    =     F    only Hartree local field effects (RPA)
   LNABLA  =     F    use nabla operator in PAW spheres
   LVEL    =     F    velocity operator in full k-point grid
   CSHIFT  =0.1000    complex shift for real part using Kramers Kronig
   OMEGAMAX=  -1.0    maximum frequency
   DEG_THRESHOLD= 0.2000000E-02 threshold for treating states as degnerate
   RTIME   =   -0.100 relaxation time in fs
  (WPLASMAI=    0.000 imaginary part of plasma frequency in eV, 0.658/RTIME)
   DFIELD  = 0.0000000 0.0000000 0.0000000 field for delta impulse in time
 
  Optional k-point grid parameters
   LKPOINTS_OPT  =     F    use optional k-point grid
   KPOINTS_OPT_MODE=     1    mode for optional k-point grid
 
 Orbital magnetization related:
   ORBITALMAG=     F  switch on orbital magnetization
   LCHIMAG   =     F  perturbation theory with respect to B field
   DQ        =  0.001000  dq finite difference perturbation B field
   LLRAUG    =     F  two centre corrections for induced B field



--------------------------------------------------------------------------------------------------------


 Static calculation
 charge density and potential remain constant during run
 non-spin polarized calculation
 RMM-DIIS sequential band-by-band and
  variant of blocked Davidson during initial phase
 perform sub-space diagonalisation
    before iterative eigenvector-optimisation
 no mixing
 using additional bands           32
 real space projection scheme for non local part
 use partial core corrections
 calculate Harris-corrections to forces 
   (improved forces if not selfconsistent)
 use gradient corrections 
 WARNING: stress and forces are not correct
  (second derivative of E(xc) not defined)
 use of overlap-Matrix (Vanderbilt PP)
 Fermi weights with tetrahedron method with Bloechl corrections


--------------------------------------------------------------------------------------------------------


  energy-cutoff  :      600.00
  volume of cell :      743.30
      direct lattice vectors                 reciprocal lattice vectors
     6.599878859  0.000000000  0.000000000     0.151517933 -0.000000000  0.000000000
     0.000000000  6.599878859  0.000000000     0.000000000  0.151517933  0.000000000
     0.000000000  0.000000000 17.064452603    -0.000000000 -0.000000000  0.058601352

  length of vectors
     6.599878859  6.599878859 17.064452603     0.151517933  0.151517933  0.058601352


 
 k-points in units of 2pi/SCALE and weight: pymatgen with grid density = 3000 / numb
   0.00000000  0.00000000  0.00000000       0.005
   0.01893974 -0.00000000  0.00000000       0.021
   0.03787948 -0.00000000  0.00000000       0.021
   0.05681922 -0.00000000  0.00000000       0.021
   0.07575897 -0.00000000  0.00000000       0.010
   0.01893974  0.01893974  0.00000000       0.021
   0.03787948  0.01893974  0.00000000       0.042
   0.05681922  0.01893974  0.00000000       0.042
   0.07575897  0.01893974  0.00000000       0.021
   0.03787948  0.03787948  0.00000000       0.021
   0.05681922  0.03787948  0.00000000       0.042
   0.07575897  0.03787948  0.00000000       0.021
   0.05681922  0.05681922  0.00000000       0.021
   0.07575897  0.05681922  0.00000000       0.021
   0.07575897  0.07575897  0.00000000       0.005
  -0.00000000 -0.00000000  0.01953378       0.010
   0.01893974 -0.00000000  0.01953378       0.042
   0.03787948 -0.00000000  0.01953378       0.042
   0.05681922 -0.00000000  0.01953378       0.042
   0.07575897 -0.00000000  0.01953378       0.021
   0.01893974  0.01893974  0.01953378       0.042
   0.03787948  0.01893974  0.01953378       0.083
   0.05681922  0.01893974  0.01953378       0.083
   0.07575897  0.01893974  0.01953378       0.042
   0.03787948  0.03787948  0.01953378       0.042
   0.05681922  0.03787948  0.01953378       0.083
   0.07575897  0.03787948  0.01953378       0.042
   0.05681922  0.05681922  0.01953378       0.042
   0.07575897  0.05681922  0.01953378       0.042
   0.07575897  0.07575897  0.01953378       0.010
 
 k-points in reciprocal lattice and weights: pymatgen with grid density = 3000 / numb
   0.00000000  0.00000000  0.00000000       0.005
   0.12500000  0.00000000  0.00000000       0.021
   0.25000000  0.00000000  0.00000000       0.021
   0.37500000  0.00000000  0.00000000       0.021
   0.50000000  0.00000000  0.00000000       0.010
   0.12500000  0.12500000  0.00000000       0.021
   0.25000000  0.12500000  0.00000000       0.042
   0.37500000  0.12500000  0.00000000       0.042
   0.50000000  0.12500000  0.00000000       0.021
   0.25000000  0.25000000  0.00000000       0.021
   0.37500000  0.25000000  0.00000000       0.042
   0.50000000  0.25000000  0.00000000       0.021
   0.37500000  0.37500000  0.00000000       0.021
   0.50000000  0.37500000  0.00000000       0.021
   0.50000000  0.50000000  0.00000000       0.005
   0.00000000 -0.00000000  0.33333333       0.010
   0.12500000  0.00000000  0.33333333       0.042
   0.25000000  0.00000000  0.33333333       0.042
   0.37500000  0.00000000  0.33333333       0.042
   0.50000000 -0.00000000  0.33333333       0.021
   0.12500000  0.12500000  0.33333333       0.042
   0.25000000  0.12500000  0.33333333       0.083
   0.37500000  0.12500000  0.33333333       0.083
   0.50000000  0.12500000  0.33333333       0.042
   0.25000000  0.25000000  0.33333333       0.042
   0.37500000  0.25000000  0.33333333       0.083
   0.50000000  0.25000000  0.33333333       0.042
   0.37500000  0.37500000  0.33333333       0.042
   0.50000000  0.37500000  0.33333333       0.042
   0.50000000  0.50000000  0.33333333       0.010
 
 position of ions in fractional coordinates (direct lattice) 
   0.84537598  0.98602919  0.34525051
   0.98602919  0.84537598  0.65474949
   0.15462402  0.01397081  0.84525051
   0.01397081  0.15462402  0.15474949
   0.51397081  0.34537598  0.59525051
   0.65462402  0.48602919  0.90474949
   0.48602919  0.65462402  0.09525051
   0.34537598  0.51397081  0.40474949
   0.35350864  0.03322932  0.30303284
   0.03322932  0.35350864  0.69696716
   0.46677068  0.85350864  0.55303284
   0.14649136  0.53322932  0.94696716
   0.53322932  0.14649136  0.05303284
   0.96677068  0.64649136  0.19696716
   0.85350864  0.46677068  0.44696716
   0.64649136  0.96677068  0.80303284
   0.30380309  0.95763654  0.59783283
   0.70834851  0.88832931  0.72472617
   0.32987312  0.46119586  0.90222216
   0.50654594  0.13917679  0.79417627
   0.36082321  0.00654594  0.04417627
   0.35164618  0.35164618  0.50000000
   0.11167069  0.29165149  0.77527383
   0.45763654  0.19619691  0.34783283
   0.04236346  0.69619691  0.90216717
   0.85164618  0.14835382  0.25000000
   0.95763654  0.30380309  0.40216717
   0.82987312  0.03880414  0.84777784
   0.17012688  0.96119586  0.34777784
   0.03880414  0.82987312  0.15222216
   0.49345406  0.86082321  0.29417627
   0.63917679  0.99345406  0.54417627
   0.80380309  0.54236346  0.15216717
   0.69619691  0.04236346  0.09783283
   0.79165149  0.38832931  0.52527383
   0.19619691  0.45763654  0.65216717
   0.13917679  0.50654594  0.20582373
   0.00654594  0.36082321  0.95582373
   0.64835382  0.64835382  0.00000000
   0.46119586  0.32987312  0.09777784
   0.88832931  0.70834851  0.27527383
   0.53880414  0.67012688  0.59777784
   0.86082321  0.49345406  0.70582373
   0.38832931  0.79165149  0.47472617
   0.29165149  0.11167069  0.22472617
   0.20834851  0.61167069  0.02527383
   0.99345406  0.63917679  0.45582373
   0.67012688  0.53880414  0.40222216
   0.96119586  0.17012688  0.65222216
   0.54236346  0.80380309  0.84783283
   0.14835382  0.85164618  0.75000000
   0.61167069  0.20834851  0.97472617
 
 position of ions in cartesian coordinates  (Angst):
   5.57937905  6.50767323  5.89151092
   6.50767323  5.57937905 11.17294168
   1.02049981  0.09220563 14.42373722
   0.09220563  1.02049981  2.64071538
   3.39214506  2.27943962 10.15762407
   4.32043924  3.20773380 15.43905483
   3.20773380  4.32043924  1.62539777
   2.27943962  3.39214506  6.90682853
   2.33311417  0.21930949  5.17108949
   0.21930949  2.33311417 11.89336311
   3.08062994  5.63305360  9.43720264
   0.96682526  3.51924892 16.15947626
   3.51924892  0.96682526  0.90497634
   6.38056937  4.26676469  3.36113681
   5.63305360  3.08062994  7.62724996
   4.26676469  6.38056937 13.70331579
   2.00506358  6.32028515 10.20169007
   4.67501433  5.86286581 12.36705533
   2.17712264  3.04383678 15.39592725
   3.34314183  0.91854995 13.55218332
   2.38138948  0.04320240  0.75384387
   2.32082222  2.32082222  8.53222630
   0.73701305  1.92486453 13.22962358
   3.02034572  1.29487585  5.93557692
   0.27959371  4.59481528 15.39498883
   5.62076165  0.97911721  4.26611315
   6.32028515  2.00506358  6.86276253
   5.47706207  0.25610265 14.46686481
   1.12281679  6.34377621  5.93463851
   0.25610265  5.47706207  2.59758780
   3.25673703  5.68132891  5.01995702
   4.21848938  6.55667646  9.28607017
   5.30500301  3.57953314  2.59664938
   4.59481528  0.27959371  1.66946377
   5.22480396  2.56292638  8.96351043
   1.29487585  3.02034572 11.12887568
   0.91854995  3.34314183  3.51226929
   0.04320240  2.38138948 16.31060874
   4.27905664  4.27905664  0.00000000
   3.04383678  2.17712264  1.66852536
   5.86286581  4.67501433  4.69739727
   3.55604208  4.42275622 10.20075166
   5.68132891  3.25673703 12.04449559
   2.56292638  5.22480396  8.10094218
   1.92486453  0.73701305  3.83482903
   1.37507490  4.03695248  0.43128412
   6.55667646  4.21848938  7.77838244
   4.42275622  3.55604208  6.86370095
   6.34377621  1.12281679 11.12981410
   3.57953314  5.30500301 14.46780322
   0.97911721  5.62076165 12.79833945
   4.03695248  1.37507490 16.63316848
 


--------------------------------------------------------------------------------------------------------


 k-point   1 :   0.0000 0.0000 0.0000  plane waves:   24837
 k-point   2 :   0.1250 0.0000 0.0000  plane waves:   24805
 k-point   3 :   0.2500 0.0000 0.0000  plane waves:   24752
 k-point   4 :   0.3750 0.0000 0.0000  plane waves:   24806
 k-point   5 :   0.5000 0.0000 0.0000  plane waves:   24794
 k-point   6 :   0.1250 0.1250 0.0000  plane waves:   24811
 k-point   7 :   0.2500 0.1250 0.0000  plane waves:   24801
 k-point   8 :   0.3750 0.1250 0.0000  plane waves:   24803
 k-point   9 :   0.5000 0.1250 0.0000  plane waves:   24804
 k-point  10 :   0.2500 0.2500 0.0000  plane waves:   24831
 k-point  11 :   0.3750 0.2500 0.0000  plane waves:   24791
 k-point  12 :   0.5000 0.2500 0.0000  plane waves:   24792
 k-point  13 :   0.3750 0.3750 0.0000  plane waves:   24804
 k-point  14 :   0.5000 0.3750 0.0000  plane waves:   24822
 k-point  15 :   0.5000 0.5000 0.0000  plane waves:   24756
 k-point  16 :   0.0000-0.0000 0.3333  plane waves:   24844
 k-point  17 :   0.1250 0.0000 0.3333  plane waves:   24809
 k-point  18 :   0.2500 0.0000 0.3333  plane waves:   24803
 k-point  19 :   0.3750 0.0000 0.3333  plane waves:   24785
 k-point  20 :   0.5000-0.0000 0.3333  plane waves:   24786
 k-point  21 :   0.1250 0.1250 0.3333  plane waves:   24792
 k-point  22 :   0.2500 0.1250 0.3333  plane waves:   24763
 k-point  23 :   0.3750 0.1250 0.3333  plane waves:   24812
 k-point  24 :   0.5000 0.1250 0.3333  plane waves:   24810
 k-point  25 :   0.2500 0.2500 0.3333  plane waves:   24804
 k-point  26 :   0.3750 0.2500 0.3333  plane waves:   24822
 k-point  27 :   0.5000 0.2500 0.3333  plane waves:   24824
 k-point  28 :   0.3750 0.3750 0.3333  plane waves:   24844
 k-point  29 :   0.5000 0.3750 0.3333  plane waves:   24846
 k-point  30 :   0.5000 0.5000 0.3333  plane waves:   24832

 maximum and minimum number of plane-waves per node :      3125     3079

 maximum number of plane-waves:     24846
 maximum index in each direction: 
   IXMAX=   13   IYMAX=   13   IZMAX=   34
   IXMIN=  -13   IYMIN=  -13   IZMIN=  -34


 real space projection operators:
  total allocation   :      13442.75 KBytes
  max/ min on nodes  :       1770.80       1489.77


 parallel 3D FFT for wavefunctions:
    minimum data exchange during FFTs selected (reduces bandwidth)
 parallel 3D FFT for charge:
    minimum data exchange during FFTs selected (reduces bandwidth)


 total amount of memory used by VASP MPI-rank0    81098. kBytes
=======================================================================

   base      :      30000. kBytes
   nonlr-proj:       6340. kBytes
   fftplans  :       3537. kBytes
   grid      :       6014. kBytes
   one-center:         56. kBytes
   wavefun   :      35151. kBytes
 
     INWAV:  cpu time      0.0001: real time      0.0001
 initial charge density was supplied:
 number of electron     304.0000008 magnetization 
 keeping initial charge density in first step


--------------------------------------------------------------------------------------------------------


 Maximum index for non-local projection operator          681
 Maximum index for augmentation-charges         1148 (set IRDMAX)


--------------------------------------------------------------------------------------------------------


 First call to EWALD:  gamma=   0.196
 Maximum number of real-space cells 4x 4x 2
 Maximum number of reciprocal cells 2x 2x 5

    FEWALD:  cpu time      0.0087: real time      0.0190


--------------------------------------- Iteration      1(   1)  ---------------------------------------


    POTLOK:  cpu time      0.1300: real time      0.1734
    SETDIJ:  cpu time      0.1270: real time      0.1356
     EDDAV:  cpu time     12.7319: real time     12.9774
 BZINTS: Fermi energy:   20.823854;  304.000000 electrons
         Band energy: 0.134297E+04;  BLOECHL correction:   -0.025797
       DOS:  cpu time      0.2391: real time      0.2406
    --------------------------------------------
      LOOP:  cpu time     13.2280: real time     13.5271

 eigenvalue-minimisations  : 11096
 total energy-change (2. order) : 0.2674499E+04  (-0.1617622E+05)
 number of electron     304.0000008 magnetization 
 augmentation part      304.0000008 magnetization 

 Free energy of the ion-electron system (eV)
  ---------------------------------------------------
  alpha Z        PSCENC =       384.29550342
  Ewald energy   TEWEN  =    -11754.93450050
  -Hartree energ DENC   =     -7446.53517513
  -exchange      EXHF   =         0.00000000
  -V(xc)+E(xc)   XCENC  =       783.07025166
  PAW double counting   =     47728.05696093   -47341.64072544
  entropy T*S    EENTRO =         0.00000000
  eigenvalues    EBANDS =      1342.96880476
  atomic energy  EATOM  =     18979.21788035
  Solvation  Ediel_sol  =         0.00000000
  ---------------------------------------------------
  free energy    TOTEN  =      2674.49900005 eV

  energy without entropy =     2674.49900005  energy(sigma->0) =     2674.49900005


--------------------------------------------------------------------------------------------------------




--------------------------------------- Iteration      1(   2)  ---------------------------------------


     EDDAV:  cpu time     17.3536: real time     17.5764
 BZINTS: Fermi energy:    4.190797;  304.000000 electrons
         Band energy:-0.138304E+04;  BLOECHL correction:   -0.000000
       DOS:  cpu time      0.2066: real time      0.2082
    --------------------------------------------
      LOOP:  cpu time     17.5602: real time     17.7847

 eigenvalue-minimisations  : 14208
 total energy-change (2. order) :-0.2726013E+04  (-0.2636103E+04)
 number of electron     304.0000008 magnetization 
 augmentation part      304.0000008 magnetization 

 Free energy of the ion-electron system (eV)
  ---------------------------------------------------
  alpha Z        PSCENC =       384.29550342
  Ewald energy   TEWEN  =    -11754.93450050
  -Hartree energ DENC   =     -7446.53517513
  -exchange      EXHF   =         0.00000000
  -V(xc)+E(xc)   XCENC  =       783.07025166
  PAW double counting   =     47728.05696093   -47341.64072544
  entropy T*S    EENTRO =         0.00000000
  eigenvalues    EBANDS =     -1383.04426769
  atomic energy  EATOM  =     18979.21788035
  Solvation  Ediel_sol  =         0.00000000
  ---------------------------------------------------
  free energy    TOTEN  =       -51.51407240 eV

  energy without entropy =      -51.51407240  energy(sigma->0) =      -51.51407240


--------------------------------------------------------------------------------------------------------




--------------------------------------- Iteration      1(   3)  ---------------------------------------


     EDDAV:  cpu time     13.6156: real time     13.7106
 BZINTS: Fermi energy:    2.272827;  304.000000 electrons
         Band energy:-0.163798E+04;  BLOECHL correction:   -0.000000
       DOS:  cpu time      0.2064: real time      0.2078
    --------------------------------------------
      LOOP:  cpu time     13.8220: real time     13.9184

 eigenvalue-minimisations  : 12208
 total energy-change (2. order) :-0.2549374E+03  (-0.2513051E+03)
 number of electron     304.0000008 magnetization 
 augmentation part      304.0000008 magnetization 

 Free energy of the ion-electron system (eV)
  ---------------------------------------------------
  alpha Z        PSCENC =       384.29550342
  Ewald energy   TEWEN  =    -11754.93450050
  -Hartree energ DENC   =     -7446.53517513
  -exchange      EXHF   =         0.00000000
  -V(xc)+E(xc)   XCENC  =       783.07025166
  PAW double counting   =     47728.05696093   -47341.64072544
  entropy T*S    EENTRO =         0.00000000
  eigenvalues    EBANDS =     -1637.98166502
  atomic energy  EATOM  =     18979.21788035
  Solvation  Ediel_sol  =         0.00000000
  ---------------------------------------------------
  free energy    TOTEN  =      -306.45146973 eV

  energy without entropy =     -306.45146973  energy(sigma->0) =     -306.45146973


--------------------------------------------------------------------------------------------------------




--------------------------------------- Iteration      1(   4)  ---------------------------------------


     EDDAV:  cpu time     15.2466: real time     15.3421
 BZINTS: Fermi energy:    2.211630;  304.000000 electrons
         Band energy:-0.164450E+04;  BLOECHL correction:   -0.000000
       DOS:  cpu time      0.3181: real time      0.3199
    --------------------------------------------
      LOOP:  cpu time     15.5647: real time     15.6620

 eigenvalue-minimisations  : 13312
 total energy-change (2. order) :-0.6513683E+01  (-0.6482789E+01)
 number of electron     304.0000008 magnetization 
 augmentation part      304.0000008 magnetization 

 Free energy of the ion-electron system (eV)
  ---------------------------------------------------
  alpha Z        PSCENC =       384.29550342
  Ewald energy   TEWEN  =    -11754.93450050
  -Hartree energ DENC   =     -7446.53517513
  -exchange      EXHF   =         0.00000000
  -V(xc)+E(xc)   XCENC  =       783.07025166
  PAW double counting   =     47728.05696093   -47341.64072544
  entropy T*S    EENTRO =         0.00000000
  eigenvalues    EBANDS =     -1644.49534822
  atomic energy  EATOM  =     18979.21788035
  Solvation  Ediel_sol  =         0.00000000
  ---------------------------------------------------
  free energy    TOTEN  =      -312.96515293 eV

  energy without entropy =     -312.96515293  energy(sigma->0) =     -312.96515293


--------------------------------------------------------------------------------------------------------




--------------------------------------- Iteration      1(   5)  ---------------------------------------


     EDDAV:  cpu time     57.4650: real time     57.8033
 BZINTS: Fermi energy:    2.210753;  304.000000 electrons
         Band energy:-0.164474E+04;  BLOECHL correction:   -0.000000
       DOS:  cpu time      0.2211: real time      0.2223
    --------------------------------------------
      LOOP:  cpu time     57.6861: real time     58.0256

 eigenvalue-minimisations  : 14944
 total energy-change (2. order) :-0.2450725E+00  (-0.2449288E+00)
 number of electron     304.0000008 magnetization 
 augmentation part      304.0000008 magnetization 

 Free energy of the ion-electron system (eV)
  ---------------------------------------------------
  alpha Z        PSCENC =       384.29550342
  Ewald energy   TEWEN  =    -11754.93450050
  -Hartree energ DENC   =     -7446.53517513
  -exchange      EXHF   =         0.00000000
  -V(xc)+E(xc)   XCENC  =       783.07025166
  PAW double counting   =     47728.05696093   -47341.64072544
  entropy T*S    EENTRO =         0.00000000
  eigenvalues    EBANDS =     -1644.74042077
  atomic energy  EATOM  =     18979.21788035
  Solvation  Ediel_sol  =         0.00000000
  ---------------------------------------------------
  free energy    TOTEN  =      -313.21022548 eV

  energy without entropy =     -313.21022548  energy(sigma->0) =     -313.21022548


--------------------------------------------------------------------------------------------------------




--------------------------------------- Iteration      1(   6)  ---------------------------------------


    EDDIAG:  cpu time      8.6909: real time      8.8305
  RMM-DIIS:  cpu time     17.4847: real time     17.5858
    ORTHCH:  cpu time      1.2902: real time      1.3815
 BZINTS: Fermi energy:    2.210712;  304.000000 electrons
         Band energy:-0.164474E+04;  BLOECHL correction:   -0.000000
       DOS:  cpu time      0.2225: real time      0.2239
    --------------------------------------------
      LOOP:  cpu time     27.6883: real time     28.0217

 eigenvalue-minimisations  : 11458
 total energy-change (2. order) :-0.3357669E-02  (-0.3357669E-02)
 number of electron     304.0000008 magnetization 
 augmentation part      304.0000008 magnetization 

 Free energy of the ion-electron system (eV)
  ---------------------------------------------------
  alpha Z        PSCENC =       384.29550342
  Ewald energy   TEWEN  =    -11754.93450050
  -Hartree energ DENC   =     -7446.53517513
  -exchange      EXHF   =         0.00000000
  -V(xc)+E(xc)   XCENC  =       783.07025166
  PAW double counting   =     47728.05696093   -47341.64072544
  entropy T*S    EENTRO =         0.00000000
  eigenvalues    EBANDS =     -1644.74377844
  atomic energy  EATOM  =     18979.21788035
  Solvation  Ediel_sol  =         0.00000000
  ---------------------------------------------------
  free energy    TOTEN  =      -313.21358315 eV

  energy without entropy =     -313.21358315  energy(sigma->0) =     -313.21358315


--------------------------------------------------------------------------------------------------------




--------------------------------------- Iteration      1(   7)  ---------------------------------------


    EDDIAG:  cpu time      8.2627: real time      8.3206
  RMM-DIIS:  cpu time     19.9658: real time     20.0836
    ORTHCH:  cpu time      0.6922: real time      0.6963
 BZINTS: Fermi energy:    2.210683;  304.000000 electrons
         Band energy:-0.164475E+04;  BLOECHL correction:   -0.000000
       DOS:  cpu time      0.2171: real time      0.2186
    --------------------------------------------
      LOOP:  cpu time     29.1377: real time     29.3190

 eigenvalue-minimisations  : 15216
 total energy-change (2. order) :-0.1318819E-02  (-0.1314733E-02)
 number of electron     304.0000008 magnetization 
 augmentation part      304.0000008 magnetization 

 Free energy of the ion-electron system (eV)
  ---------------------------------------------------
  alpha Z        PSCENC =       384.29550342
  Ewald energy   TEWEN  =    -11754.93450050
  -Hartree energ DENC   =     -7446.53517513
  -exchange      EXHF   =         0.00000000
  -V(xc)+E(xc)   XCENC  =       783.07025166
  PAW double counting   =     47728.05696093   -47341.64072544
  entropy T*S    EENTRO =         0.00000000
  eigenvalues    EBANDS =     -1644.74509725
  atomic energy  EATOM  =     18979.21788035
  Solvation  Ediel_sol  =         0.00000000
  ---------------------------------------------------
  free energy    TOTEN  =      -313.21490197 eV

  energy without entropy =     -313.21490197  energy(sigma->0) =     -313.21490197


--------------------------------------------------------------------------------------------------------




--------------------------------------- Iteration      1(   8)  ---------------------------------------


    EDDIAG:  cpu time      2.6545: real time      2.6711
  RMM-DIIS:  cpu time      5.6864: real time      5.7302
    ORTHCH:  cpu time      0.4144: real time      0.4167
 BZINTS: Fermi energy:    2.210685;  304.000000 electrons
         Band energy:-0.164475E+04;  BLOECHL correction:   -0.000000
       DOS:  cpu time      0.2174: real time      0.2187
    --------------------------------------------
      LOOP:  cpu time      8.9726: real time      9.0367

 eigenvalue-minimisations  : 15318
 total energy-change (2. order) :-0.8423873E-04  (-0.9168521E-04)
 number of electron     304.0000008 magnetization 
 augmentation part      304.0000008 magnetization 

 Free energy of the ion-electron system (eV)
  ---------------------------------------------------
  alpha Z        PSCENC =       384.29550342
  Ewald energy   TEWEN  =    -11754.93450050
  -Hartree energ DENC   =     -7446.53517513
  -exchange      EXHF   =         0.00000000
  -V(xc)+E(xc)   XCENC  =       783.07025166
  PAW double counting   =     47728.05696093   -47341.64072544
  entropy T*S    EENTRO =         0.00000000
  eigenvalues    EBANDS =     -1644.74518149
  atomic energy  EATOM  =     18979.21788035
  Solvation  Ediel_sol  =         0.00000000
  ---------------------------------------------------
  free energy    TOTEN  =      -313.21498620 eV

  energy without entropy =     -313.21498620  energy(sigma->0) =     -313.21498620


--------------------------------------------------------------------------------------------------------




--------------------------------------- Iteration      1(   9)  ---------------------------------------


    EDDIAG:  cpu time      1.8774: real time      1.8971
  RMM-DIIS:  cpu time     15.4851: real time     15.5838
    ORTHCH:  cpu time      0.3458: real time      0.3478
 BZINTS: Fermi energy:    2.210679;  304.000000 electrons
         Band energy:-0.164475E+04;  BLOECHL correction:   -0.000000
       DOS:  cpu time      0.1388: real time      0.1397
    --------------------------------------------
      LOOP:  cpu time     17.8471: real time     17.9684

 eigenvalue-minimisations  : 14909
 total energy-change (2. order) :-0.1745041E-04  (-0.1767405E-04)
 number of electron     304.0000008 magnetization 
 augmentation part      304.0000008 magnetization 

 Free energy of the ion-electron system (eV)
  ---------------------------------------------------
  alpha Z        PSCENC =       384.29550342
  Ewald energy   TEWEN  =    -11754.93450050
  -Hartree energ DENC   =     -7446.53517513
  -exchange      EXHF   =         0.00000000
  -V(xc)+E(xc)   XCENC  =       783.07025166
  PAW double counting   =     47728.05696093   -47341.64072544
  entropy T*S    EENTRO =         0.00000000
  eigenvalues    EBANDS =     -1644.74519894
  atomic energy  EATOM  =     18979.21788035
  Solvation  Ediel_sol  =         0.00000000
  ---------------------------------------------------
  free energy    TOTEN  =      -313.21500365 eV

  energy without entropy =     -313.21500365  energy(sigma->0) =     -313.21500365


--------------------------------------------------------------------------------------------------------




--------------------------------------- Iteration      1(  10)  ---------------------------------------


    EDDIAG:  cpu time      1.5357: real time      1.5438
  RMM-DIIS:  cpu time      3.5054: real time      3.5287
    ORTHCH:  cpu time      0.2896: real time      0.2913
 BZINTS: Fermi energy:    2.210675;  304.000000 electrons
         Band energy:-0.164475E+04;  BLOECHL correction:   -0.000000
       DOS:  cpu time      0.1352: real time      0.1363
    --------------------------------------------
      LOOP:  cpu time      5.4659: real time      5.5001

 eigenvalue-minimisations  :  9908
 total energy-change (2. order) :-0.3502937E-06  (-0.6033793E-06)
 number of electron     304.0000008 magnetization 
 augmentation part      304.0000008 magnetization 

 Free energy of the ion-electron system (eV)
  ---------------------------------------------------
  alpha Z        PSCENC =       384.29550342
  Ewald energy   TEWEN  =    -11754.93450050
  -Hartree energ DENC   =     -7446.53517513
  -exchange      EXHF   =         0.00000000
  -V(xc)+E(xc)   XCENC  =       783.07025166
  PAW double counting   =     47728.05696093   -47341.64072544
  entropy T*S    EENTRO =         0.00000000
  eigenvalues    EBANDS =     -1644.74519929
  atomic energy  EATOM  =     18979.21788035
  Solvation  Ediel_sol  =         0.00000000
  ---------------------------------------------------
  free energy    TOTEN  =      -313.21500400 eV

  energy without entropy =     -313.21500400  energy(sigma->0) =     -313.21500400


--------------------------------------------------------------------------------------------------------




 average (electrostatic) potential at core
  the test charge radii are     1.1712  0.9698  0.7215
  (the norm of the test charge is              1.0000)
       1 -90.0409       2 -90.0409       3 -90.0409       4 -90.0409       5 -90.0409
       6 -90.0409       7 -90.0409       8 -90.0409       9 -92.6134      10 -92.6134
      11 -92.6134      12 -92.6134      13 -92.6134      14 -92.6134      15 -92.6134
      16 -92.6134      17 -72.2226      18 -72.3823      19 -72.5251      20 -72.0196
      21 -72.0196      22 -71.5053      23 -72.3823      24 -72.2226      25 -72.2226
      26 -71.5053      27 -72.2226      28 -72.5251      29 -72.5251      30 -72.5251
      31 -72.0196      32 -72.0196      33 -72.2226      34 -72.2226      35 -72.3823
      36 -72.2226      37 -72.0196      38 -72.0196      39 -71.5053      40 -72.5251
      41 -72.3823      42 -72.5251      43 -72.0196      44 -72.3823      45 -72.3823
      46 -72.3823      47 -72.0196      48 -72.5251      49 -72.5251      50 -72.2226
      51 -71.5053      52 -72.3823
 
 
 
 E-fermi :   2.2107     XC(G=0):  -9.3174     alpha+bet : -9.6826

 Fermi energy:         2.2106747955

 k-point     1 :       0.0000    0.0000    0.0000
  band No.  band energies     occupation 
      1     -21.1013      2.00000
      2     -21.0614      2.00000
      3     -21.0614      2.00000
      4     -21.0088      2.00000
      5     -20.9665      2.00000
      6     -20.9656      2.00000
      7     -20.9602      2.00000
      8     -20.9602      2.00000
      9     -17.1432      2.00000
     10     -17.0706      2.00000
     11     -17.0706      2.00000
     12     -17.0600      2.00000
     13     -17.0229      2.00000
     14     -17.0229      2.00000
     15     -17.0206      2.00000
     16     -16.9351      2.00000
     17     -16.9208      2.00000
     18     -16.8978      2.00000
     19     -16.8893      2.00000
     20     -16.8893      2.00000
     21     -16.8181      2.00000
     22     -16.8174      2.00000
     23     -16.8174      2.00000
     24     -16.8080      2.00000
     25     -16.7053      2.00000
     26     -16.6966      2.00000
     27     -16.6966      2.00000
     28     -16.6851      2.00000
     29     -16.6551      2.00000
     30     -16.6539      2.00000
     31     -16.6539      2.00000
     32     -16.6513      2.00000
     33     -15.0891      2.00000
     34     -15.0738      2.00000
     35     -15.0738      2.00000
     36     -15.0598      2.00000
     37      -8.3646      2.00000
     38      -8.1925      2.00000
     39      -8.1925      2.00000
     40      -7.8141      2.00000
     41      -7.6426      2.00000
     42      -7.5649      2.00000
     43      -7.4342      2.00000
     44      -7.4342      2.00000
     45      -6.5902      2.00000
     46      -6.5902      2.00000
     47      -6.5159      2.00000
     48      -6.3495      2.00000
     49      -5.5085      2.00000
     50      -5.0379      2.00000
     51      -5.0379      2.00000
     52      -4.9435      2.00000
     53      -4.7723      2.00000
     54      -4.7723      2.00000
     55      -4.6820      2.00000
     56      -4.6799      2.00000
     57      -4.3328      2.00000
     58      -4.2042      2.00000
     59      -4.1801      2.00000
     60      -4.1801      2.00000
     61      -3.9781      2.00000
     62      -3.9421      2.00000
     63      -3.9421      2.00000
     64      -3.9374      2.00000
     65      -3.7306      2.00000
     66      -3.7222      2.00000
     67      -3.7222      2.00000
     68      -3.6971      2.00000
     69      -3.5353      2.00000
     70      -3.5353      2.00000
     71      -3.4971      2.00000
     72      -3.4296      2.00000
     73      -2.9858      2.00000
     74      -2.9745      2.00000
     75      -2.9745      2.00000
     76      -2.7186      2.00000
     77      -2.0177      2.00000
     78      -2.0177      2.00000
     79      -1.9772      2.00000
     80      -1.7629      2.00000
     81      -1.7564      2.00000
     82      -1.6884      2.00000
     83      -1.5646      2.00000
     84      -1.5646      2.00000
     85      -1.5401      2.00000
     86      -1.3948      2.00000
     87      -1.3948      2.00000
     88      -1.3893      2.00000
     89      -1.1145      2.00000
     90      -1.0204      2.00000
     91      -1.0204      2.00000
     92      -0.9314      2.00000
     93      -0.9187      2.00000
     94      -0.9187      2.00000
     95      -0.8934      2.00000
     96      -0.8587      2.00000
     97      -0.8466      2.00000
     98      -0.7704      2.00000
     99      -0.7704      2.00000
    100      -0.7359      2.00000
    101      -0.6354      2.00000
    102      -0.4071      2.00000
    103      -0.4071      2.00000
    104      -0.3877      2.00000
    105      -0.3772      2.00000
    106      -0.3505      2.00000
    107      -0.3480      2.00000
    108      -0.3480      2.00000
    109      -0.3017      2.00000
    110      -0.3017      2.00000
    111      -0.2739      2.00000
    112      -0.1947      2.00000
    113      -0.0337      2.00000
    114       0.1998      2.00000
    115       0.1998      2.00000
    116       0.5586      2.00000
    117       0.6001      2.00000
    118       0.6739      2.00000
    119       0.6739      2.00000
    120       0.7614      2.00000
    121       0.8130      2.00000
    122       0.8296      2.00000
    123       0.8388      2.00000
    124       0.8477      2.00000
    125       0.8477      2.00000
    126       0.8963      2.00000
    127       0.9082      2.00000
    128       0.9082      2.00000
    129       0.9109      2.00000
    130       1.1289      2.00000
    131       1.1289      2.00000
    132       1.1452      2.00000
    133       1.2579      2.00000
    134       1.2824      2.00000
    135       1.2824      2.00000
    136       1.3489      2.00000
    137       1.3489      2.00000
    138       1.3636      2.00000
    139       1.3830      2.00000
    140       1.4058      2.00000
    141       1.4102      2.00000
    142       1.5654      2.00000
    143       1.5654      2.00000
    144       1.6554      2.00000
    145       1.6708      2.00000
    146       1.7344      2.00000
    147       1.7344      2.00000
    148       1.7482      2.00000
    149       1.7882      2.00000
    150       1.8593      2.00000
    151       1.8593      2.00000
    152       2.2108      1.99999
    153       6.7462      0.00000
    154       6.8873      0.00000
    155       6.8873      0.00000
    156       6.9027      0.00000
    157       6.9727      0.00000
    158       7.2415      0.00000
    159       7.2415      0.00000
    160       7.2510      0.00000
    161       7.3574      0.00000
    162       7.3853      0.00000
    163       7.4761      0.00000
    164       7.4761      0.00000
    165       7.5902      0.00000
    166       7.5902      0.00000
    167       7.8021      0.00000
    168       7.8512      0.00000
    169       7.9926      0.00000
    170       8.1262      0.00000
    171       8.1263      0.00000
    172       8.2102      0.00000
    173       9.3459      0.00000
    174       9.3465      0.00000
    175       9.5675      0.00000
    176       9.6844      0.00000
    177       9.8537      0.00000
    178      10.3944      0.00000
    179      10.4758      0.00000
    180      10.5164      0.00000
    181      10.5274      0.00000
    182      10.6781      0.00000
    183      10.8762      0.00000
    184      10.9426      0.00000

 k-point     2 :       0.1250    0.0000    0.0000
  band No.  band energies     occupation 
      1     -21.0971      2.00000
      2     -21.0589      2.00000
      3     -21.0587      2.00000
      4     -21.0102      2.00000
      5     -20.9710      2.00000
      6     -20.9701      2.00000
      7     -20.9593      2.00000
      8     -20.9588      2.00000
      9     -17.1442      2.00000
     10     -17.0789      2.00000
     11     -17.0685      2.00000
     12     -17.0636      2.00000
     13     -17.0355      2.00000
     14     -17.0249      2.00000
     15     -17.0091      2.00000
     16     -16.9433      2.00000
     17     -16.9199      2.00000
     18     -16.8984      2.00000
     19     -16.8897      2.00000
     20     -16.8758      2.00000
     21     -16.8270      2.00000
     22     -16.8223      2.00000
     23     -16.8223      2.00000
     24     -16.8080      2.00000
     25     -16.7042      2.00000
     26     -16.6985      2.00000
     27     -16.6910      2.00000
     28     -16.6834      2.00000
     29     -16.6542      2.00000
     30     -16.6537      2.00000
     31     -16.6520      2.00000
     32     -16.6504      2.00000
     33     -15.0834      2.00000
     34     -15.0696      2.00000
     35     -15.0684      2.00000
     36     -15.0559      2.00000
     37      -8.3312      2.00000
     38      -8.1728      2.00000
     39      -8.1643      2.00000
     40      -7.7972      2.00000
     41      -7.6552      2.00000
     42      -7.5475      2.00000
     43      -7.4258      2.00000
     44      -7.4100      2.00000
     45      -6.6457      2.00000
     46      -6.6184      2.00000
     47      -6.5520      2.00000
     48      -6.3798      2.00000
     49      -5.4810      2.00000
     50      -5.0420      2.00000
     51      -5.0324      2.00000
     52      -4.9401      2.00000
     53      -4.7750      2.00000
     54      -4.7732      2.00000
     55      -4.6819      2.00000
     56      -4.6755      2.00000
     57      -4.3619      2.00000
     58      -4.2479      2.00000
     59      -4.2225      2.00000
     60      -4.2080      2.00000
     61      -3.9764      2.00000
     62      -3.9473      2.00000
     63      -3.9227      2.00000
     64      -3.8841      2.00000
     65      -3.7479      2.00000
     66      -3.7359      2.00000
     67      -3.7011      2.00000
     68      -3.6970      2.00000
     69      -3.5601      2.00000
     70      -3.5298      2.00000
     71      -3.5078      2.00000
     72      -3.4424      2.00000
     73      -3.0076      2.00000
     74      -3.0015      2.00000
     75      -2.9852      2.00000
     76      -2.7525      2.00000
     77      -2.0520      2.00000
     78      -1.9835      2.00000
     79      -1.9667      2.00000
     80      -1.7528      2.00000
     81      -1.7100      2.00000
     82      -1.6858      2.00000
     83      -1.6527      2.00000
     84      -1.5673      2.00000
     85      -1.4697      2.00000
     86      -1.4499      2.00000
     87      -1.3460      2.00000
     88      -1.3200      2.00000
     89      -1.0858      2.00000
     90      -1.0641      2.00000
     91      -1.0332      2.00000
     92      -0.9604      2.00000
     93      -0.9490      2.00000
     94      -0.9224      2.00000
     95      -0.8924      2.00000
     96      -0.8753      2.00000
     97      -0.7988      2.00000
     98      -0.7658      2.00000
     99      -0.7581      2.00000
    100      -0.6832      2.00000
    101      -0.6124      2.00000
    102      -0.4529      2.00000
    103      -0.4433      2.00000
    104      -0.4025      2.00000
    105      -0.3871      2.00000
    106      -0.3841      2.00000
    107      -0.3544      2.00000
    108      -0.3197      2.00000
    109      -0.2895      2.00000
    110      -0.2861      2.00000
    111      -0.2154      2.00000
    112      -0.1704      2.00000
    113       0.0053      2.00000
    114       0.2390      2.00000
    115       0.2565      2.00000
    116       0.5532      2.00000
    117       0.5701      2.00000
    118       0.6360      2.00000
    119       0.6692      2.00000
    120       0.7673      2.00000
    121       0.7871      2.00000
    122       0.8147      2.00000
    123       0.8315      2.00000
    124       0.8475      2.00000
    125       0.8520      2.00000
    126       0.8942      2.00000
    127       0.9017      2.00000
    128       0.9423      2.00000
    129       0.9444      2.00000
    130       1.1212      2.00000
    131       1.1383      2.00000
    132       1.1705      2.00000
    133       1.2031      2.00000
    134       1.2493      2.00000
    135       1.3161      2.00000
    136       1.3342      2.00000
    137       1.3656      2.00000
    138       1.3719      2.00000
    139       1.4012      2.00000
    140       1.4231      2.00000
    141       1.4331      2.00000
    142       1.5664      2.00000
    143       1.5908      2.00000
    144       1.6461      2.00000
    145       1.6750      2.00000
    146       1.6924      2.00000
    147       1.7537      2.00000
    148       1.7651      2.00000
    149       1.8342      2.00000
    150       1.8673      2.00000
    151       1.8731      2.00000
    152       2.1897      2.00000
    153       6.6779      0.00000
    154       6.8229      0.00000
    155       6.8758      0.00000
    156       6.9325      0.00000
    157       6.9524      0.00000
    158       7.1909      0.00000
    159       7.2053      0.00000
    160       7.2824      0.00000
    161       7.3415      0.00000
    162       7.3857      0.00000
    163       7.4453      0.00000
    164       7.4567      0.00000
    165       7.5537      0.00000
    166       7.5971      0.00000
    167       7.8078      0.00000
    168       7.8327      0.00000
    169       8.0094      0.00000
    170       8.0810      0.00000
    171       8.1231      0.00000
    172       8.1744      0.00000
    173       9.3091      0.00000
    174       9.3407      0.00000
    175       9.5653      0.00000
    176       9.6650      0.00000
    177       9.9919      0.00000
    178      10.3418      0.00000
    179      10.4623      0.00000
    180      10.5231      0.00000
    181      10.5513      0.00000
    182      10.6638      0.00000
    183      10.8810      0.00000
    184      11.1316      0.00000

 k-point     3 :       0.2500    0.0000    0.0000
  band No.  band energies     occupation 
      1     -21.0852      2.00000
      2     -21.0522      2.00000
      3     -21.0517      2.00000
      4     -21.0157      2.00000
      5     -20.9806      2.00000
      6     -20.9778      2.00000
[...]
   35        1.577   3.586   0.000   5.163
   36        1.581   3.556   0.000   5.137
   37        1.589   3.541   0.000   5.130
   38        1.589   3.541   0.000   5.130
   39        1.568   3.486   0.000   5.054
   40        1.573   3.586   0.000   5.159
   41        1.577   3.586   0.000   5.163
   42        1.573   3.586   0.000   5.159
   43        1.589   3.541   0.000   5.130
   44        1.577   3.586   0.000   5.163
   45        1.577   3.586   0.000   5.163
   46        1.577   3.586   0.000   5.163
   47        1.589   3.541   0.000   5.130
   48        1.573   3.586   0.000   5.159
   49        1.573   3.586   0.000   5.159
   50        1.581   3.556   0.000   5.137
   51        1.568   3.486   0.000   5.054
   52        1.577   3.586   0.000   5.163
--------------------------------------------------
tot         77.238 152.119   0.800 230.158
 
    CHARGE:  cpu time      2.9523: real time      7.7269
    FORLOC:  cpu time      0.0071: real time      0.0071
    FORNL :  cpu time      1.5984: real time      1.7526
    STRESS:  cpu time      4.9018: real time      4.9501
    FORCOR:  cpu time      0.0315: real time      0.0317
    FORHAR:  cpu time      0.0106: real time      0.0107
    OFIELD:  cpu time      0.0000: real time      0.0000

 ---------------------------------------------------------------------------------------------

         DFTD3 V3.0 Rev 1        
 IVDW         = 12
 DF pbe       
 parameters
 VDW_S6       =    1.0000
 VDW_S8       =    0.7875
 VDW_A1       =    0.4289
 VDW_A2       =    4.4407
 k1-k3        =   16.0000    1.3333   -4.0000
 VDW_RADIUS   =   50.2022 A
 VDW_CNRADIUS =   21.1671 A
 Edisp (eV)   -8.35833

 E6    (eV) :    -5.3992
 E8    (eV) :    -2.9591
 % E8        : 35.40
    FORVDW:  cpu time      0.1542: real time      0.1554

  FORCE on cell =-STRESS in cart. coord.  units (eV):
  Direction    XX          YY          ZZ          XY          YZ          ZX
  --------------------------------------------------------------------------------------
  Alpha Z   384.29550   384.29550   384.29550
  Ewald   -3732.26878 -3732.26878 -4290.47427     0.00000    -0.00000     0.00000
  Hartree  2536.47273  2536.47273  2373.54785    -0.00000    -0.00000    -0.00000
  E(xc)   -1427.38207 -1427.38207 -1434.45695     0.00000     0.00000     0.00000
  Local   -3738.80625 -3738.80625 -3065.01984    -0.00000     0.00000     0.00000
  n-local   255.18370   256.54109   296.03129     0.06592     0.00002    -0.00000
  augment   -19.51644   -19.51644   -27.48778     0.00000    -0.00000    -0.00000
  Kinetic  5750.57588  5748.06317  5772.35943    -0.20803    -0.00008    -0.00058
  Fock        0.00000     0.00000     0.00000     0.00000     0.00000     0.00000
  vdW        -7.97148    -7.97148    -8.83340    -0.00000     0.00000     0.00000
  -------------------------------------------------------------------------------------
  Total       0.00513     0.00513    -0.03816    -0.00000     0.00000     0.00000
  in kB       0.01105     0.01105    -0.08225    -0.00000     0.00000     0.00000
  external pressure =       -0.02 kB  Pullay stress =        0.00 kB


 VOLUME and BASIS-vectors are now :
 -----------------------------------------------------------------------------
  energy-cutoff  :      600.00
  volume of cell :      743.30
      direct lattice vectors                 reciprocal lattice vectors
     6.599878859  0.000000000  0.000000000     0.151517933 -0.000000000  0.000000000
     0.000000000  6.599878859  0.000000000     0.000000000  0.151517933  0.000000000
     0.000000000  0.000000000 17.064452603    -0.000000000 -0.000000000  0.058601352

  length of vectors
     6.599878859  6.599878859 17.064452603     0.151517933  0.151517933  0.058601352


 FORCES acting on ions
    electron-ion (+dipol)            ewald-force                    non-local-force                 convergence-correction
 -----------------------------------------------------------------------------------------------
   0.401E+02 0.654E+01 -.967E+02   -.471E+02 -.858E+01 0.107E+03   0.696E+01 0.204E+01 -.105E+02   0.893E-04 0.482E-03 -.123E-02
   0.654E+01 0.401E+02 0.967E+02   -.858E+01 -.471E+02 -.107E+03   0.204E+01 0.696E+01 0.105E+02   0.482E-03 0.893E-04 0.123E-02
   -.401E+02 -.654E+01 -.967E+02   0.471E+02 0.858E+01 0.107E+03   -.696E+01 -.204E+01 -.105E+02   -.893E-04 -.482E-03 -.123E-02
   -.654E+01 -.401E+02 0.967E+02   0.858E+01 0.471E+02 -.107E+03   -.204E+01 -.696E+01 0.105E+02   -.482E-03 -.893E-04 0.123E-02
   -.654E+01 0.401E+02 -.967E+02   0.858E+01 -.471E+02 0.107E+03   -.204E+01 0.696E+01 -.105E+02   -.482E-03 0.893E-04 -.123E-02
   -.401E+02 0.654E+01 0.967E+02   0.471E+02 -.858E+01 -.107E+03   -.696E+01 0.204E+01 0.105E+02   -.893E-04 0.482E-03 0.123E-02
   0.654E+01 -.401E+02 -.967E+02   -.858E+01 0.471E+02 0.107E+03   0.204E+01 -.696E+01 -.105E+02   0.482E-03 -.893E-04 -.123E-02
   0.401E+02 -.654E+01 0.967E+02   -.471E+02 0.858E+01 -.107E+03   0.696E+01 -.204E+01 0.105E+02   0.893E-04 -.482E-03 0.123E-02
   -.132E+02 -.130E+02 -.156E+01   0.163E+02 0.119E+02 0.115E+01   -.305E+01 0.108E+01 0.416E+00   -.675E-03 0.116E-02 -.155E-02
   -.130E+02 -.132E+02 0.156E+01   0.119E+02 0.163E+02 -.115E+01   0.108E+01 -.305E+01 -.416E+00   0.116E-02 -.675E-03 0.155E-02
   0.130E+02 -.132E+02 -.156E+01   -.119E+02 0.163E+02 0.115E+01   -.108E+01 -.305E+01 0.416E+00   -.116E-02 -.675E-03 -.155E-02
   0.132E+02 -.130E+02 0.156E+01   -.163E+02 0.119E+02 -.115E+01   0.305E+01 0.108E+01 -.416E+00   0.675E-03 0.116E-02 0.155E-02
   -.130E+02 0.132E+02 -.156E+01   0.119E+02 -.163E+02 0.115E+01   0.108E+01 0.305E+01 0.416E+00   0.116E-02 0.675E-03 -.155E-02
   0.130E+02 0.132E+02 0.156E+01   -.119E+02 -.163E+02 -.115E+01   -.108E+01 0.305E+01 -.416E+00   -.116E-02 0.675E-03 0.155E-02
   -.132E+02 0.130E+02 0.156E+01   0.163E+02 -.119E+02 -.115E+01   -.305E+01 -.108E+01 -.416E+00   -.675E-03 -.116E-02 0.155E-02
   0.132E+02 0.130E+02 -.156E+01   -.163E+02 -.119E+02 0.115E+01   0.305E+01 -.108E+01 0.416E+00   0.675E-03 -.116E-02 -.155E-02
   0.162E+03 -.987E+02 -.819E+02   -.191E+03 0.123E+03 0.104E+03   0.285E+02 -.239E+02 -.217E+02   0.261E-02 -.411E-02 -.470E-02
   0.247E+00 0.911E+02 0.165E+03   -.936E+00 -.107E+03 -.202E+03   0.696E+00 0.163E+02 0.370E+02   -.328E-02 0.347E-02 0.673E-02
   -.132E+03 0.624E+02 0.148E+03   0.152E+03 -.795E+02 -.175E+03   -.207E+02 0.171E+02 0.264E+02   -.117E-02 0.442E-03 0.582E-02
   0.122E+03 -.207E+03 0.507E+02   -.150E+03 0.246E+03 -.582E+02   0.274E+02 -.390E+02 0.753E+01   0.123E-02 -.416E-02 0.368E-02
   0.207E+03 0.122E+03 0.507E+02   -.246E+03 -.150E+03 -.582E+02   0.390E+02 0.274E+02 0.753E+01   0.416E-02 0.123E-02 0.368E-02
   0.639E+02 0.639E+02 -.398E-07   -.795E+02 -.795E+02 -.167E-11   0.157E+02 0.157E+02 0.190E-14   0.164E-02 0.164E-02 0.140E-11
   -.911E+02 -.247E+00 -.165E+03   0.107E+03 0.936E+00 0.202E+03   -.163E+02 -.696E+00 -.370E+02   -.347E-02 0.328E-02 -.673E-02
   -.987E+02 -.162E+03 -.819E+02   0.123E+03 0.191E+03 0.104E+03   -.239E+02 -.285E+02 -.217E+02   -.411E-02 -.261E-02 -.470E-02
   0.987E+02 -.162E+03 0.819E+02   -.123E+03 0.191E+03 -.104E+03   0.239E+02 -.285E+02 0.217E+02   0.411E-02 -.261E-02 0.470E-02
   0.639E+02 -.639E+02 -.119E-09   -.795E+02 0.795E+02 0.743E-11   0.157E+02 -.157E+02 0.000E+00   0.164E-02 -.164E-02 0.112E-10
   -.987E+02 0.162E+03 0.819E+02   0.123E+03 -.191E+03 -.104E+03   -.239E+02 0.285E+02 0.217E+02   -.411E-02 0.261E-02 0.470E-02
   -.132E+03 -.624E+02 -.148E+03   0.152E+03 0.795E+02 0.175E+03   -.207E+02 -.171E+02 -.264E+02   -.117E-02 -.442E-03 -.582E-02
   0.132E+03 0.624E+02 -.148E+03   -.152E+03 -.795E+02 0.175E+03   0.207E+02 0.171E+02 -.264E+02   0.117E-02 0.442E-03 -.582E-02
   -.624E+02 -.132E+03 0.148E+03   0.795E+02 0.152E+03 -.175E+03   -.171E+02 -.207E+02 0.264E+02   -.442E-03 -.117E-02 0.582E-02
   -.122E+03 0.207E+03 0.507E+02   0.150E+03 -.246E+03 -.582E+02   -.274E+02 0.390E+02 0.753E+01   -.123E-02 0.416E-02 0.368E-02
   -.207E+03 -.122E+03 0.507E+02   0.246E+03 0.150E+03 -.582E+02   -.390E+02 -.274E+02 0.753E+01   -.416E-02 -.123E-02 0.368E-02
   0.162E+03 0.987E+02 0.819E+02   -.191E+03 -.123E+03 -.104E+03   0.285E+02 0.239E+02 0.217E+02   0.261E-02 0.411E-02 0.470E-02
   -.162E+03 0.987E+02 -.819E+02   0.191E+03 -.123E+03 0.104E+03   -.285E+02 0.239E+02 -.217E+02   -.261E-02 0.411E-02 -.470E-02
   -.247E+00 0.911E+02 -.165E+03   0.936E+00 -.107E+03 0.202E+03   -.696E+00 0.163E+02 -.370E+02   0.328E-02 0.347E-02 -.673E-02
   -.162E+03 -.987E+02 0.819E+02   0.191E+03 0.123E+03 -.104E+03   -.285E+02 -.239E+02 0.217E+02   -.261E-02 -.411E-02 0.470E-02
   -.207E+03 0.122E+03 -.507E+02   0.246E+03 -.150E+03 0.582E+02   -.390E+02 0.274E+02 -.753E+01   -.416E-02 0.123E-02 -.368E-02
   0.122E+03 0.207E+03 -.507E+02   -.150E+03 -.246E+03 0.582E+02   0.274E+02 0.390E+02 -.753E+01   0.123E-02 0.416E-02 -.368E-02
   -.639E+02 -.639E+02 0.396E-07   0.795E+02 0.795E+02 -.249E-13   -.157E+02 -.157E+02 -.190E-14   -.164E-02 -.164E-02 0.278E-11
   0.624E+02 -.132E+03 -.148E+03   -.795E+02 0.152E+03 0.175E+03   0.171E+02 -.207E+02 -.264E+02   0.442E-03 -.117E-02 -.582E-02
   0.911E+02 0.247E+00 -.165E+03   -.107E+03 -.936E+00 0.202E+03   0.163E+02 0.696E+00 -.370E+02   0.347E-02 -.328E-02 -.673E-02
   -.624E+02 0.132E+03 -.148E+03   0.795E+02 -.152E+03 0.175E+03   -.171E+02 0.207E+02 -.264E+02   -.442E-03 0.117E-02 -.582E-02
   0.207E+03 -.122E+03 -.507E+02   -.246E+03 0.150E+03 0.582E+02   0.390E+02 -.274E+02 -.753E+01   0.416E-02 -.123E-02 -.368E-02
   0.911E+02 -.247E+00 0.165E+03   -.107E+03 0.936E+00 -.202E+03   0.163E+02 -.696E+00 0.370E+02   0.347E-02 0.328E-02 0.673E-02
   -.247E+00 -.911E+02 0.165E+03   0.936E+00 0.107E+03 -.202E+03   -.696E+00 -.163E+02 0.370E+02   0.328E-02 -.347E-02 0.673E-02
   0.247E+00 -.911E+02 -.165E+03   -.936E+00 0.107E+03 0.202E+03   0.696E+00 -.163E+02 -.370E+02   -.328E-02 -.347E-02 -.673E-02
   -.122E+03 -.207E+03 -.507E+02   0.150E+03 0.246E+03 0.582E+02   -.274E+02 -.390E+02 -.753E+01   -.123E-02 -.416E-02 -.368E-02
   0.132E+03 -.624E+02 0.148E+03   -.152E+03 0.795E+02 -.175E+03   0.207E+02 -.171E+02 0.264E+02   0.117E-02 -.442E-03 0.582E-02
   0.624E+02 0.132E+03 0.148E+03   -.795E+02 -.152E+03 -.175E+03   0.171E+02 0.207E+02 0.264E+02   0.442E-03 0.117E-02 0.582E-02
   0.987E+02 0.162E+03 -.819E+02   -.123E+03 -.191E+03 0.104E+03   0.239E+02 0.285E+02 -.217E+02   0.411E-02 0.261E-02 -.470E-02
   -.639E+02 0.639E+02 -.106E-09   0.795E+02 -.795E+02 -.616E-11   -.157E+02 0.157E+02 0.000E+00   -.164E-02 0.164E-02 0.552E-11
   -.911E+02 0.247E+00 0.165E+03   0.107E+03 -.936E+00 -.202E+03   -.163E+02 0.696E+00 0.370E+02   -.347E-02 -.328E-02 0.673E-02
 -----------------------------------------------------------------------------------------------
   0.574E-06 -.575E-06 -.461E-08   0.853E-13 0.226E-12 -.142E-12   -.711E-14 -.105E-13 0.355E-13   0.460E-10 0.681E-10 0.125E-09
 
 
 POSITION                                       TOTAL-FORCE (eV/Angst)
 -----------------------------------------------------------------------------------
      5.57938      6.50767      5.89151         0.001494     -0.006924     -0.004836
      6.50767      5.57938     11.17294        -0.006924      0.001494      0.004836
      1.02050      0.09221     14.42374        -0.001494      0.006924     -0.004836
      0.09221      1.02050      2.64072         0.006924     -0.001494      0.004836
      3.39215      2.27944     10.15762         0.006924      0.001494     -0.004836
      4.32044      3.20773     15.43905        -0.001494     -0.006924      0.004836
      3.20773      4.32044      1.62540        -0.006924     -0.001494     -0.004836
      2.27944      3.39215      6.90683         0.001494      0.006924      0.004836
      2.33311      0.21931      5.17109         0.000593     -0.002907      0.000205
      0.21931      2.33311     11.89336        -0.002907      0.000593     -0.000205
      3.08063      5.63305      9.43720         0.002907      0.000593      0.000205
      0.96683      3.51925     16.15948        -0.000593     -0.002907     -0.000205
      3.51925      0.96683      0.90498        -0.002907     -0.000593      0.000205
      6.38057      4.26676      3.36114         0.002907     -0.000593     -0.000205
      5.63305      3.08063      7.62725         0.000593      0.002907     -0.000205
      4.26676      6.38057     13.70332        -0.000593      0.002907      0.000205
      2.00506      6.32029     10.20169         0.001356     -0.003813      0.001432
      4.67501      5.86287     12.36706        -0.000244     -0.001409      0.000417
      2.17712      3.04384     15.39593        -0.000321      0.002216      0.002895
      3.34314      0.91855     13.55218         0.005955     -0.007372     -0.000718
      2.38139      0.04320      0.75384         0.007372      0.005955     -0.000718
      2.32082      2.32082      8.53223         0.002870      0.002870      0.000000
      0.73701      1.92486     13.22962         0.001409      0.000244     -0.000417
      3.02035      1.29488      5.93558        -0.003813     -0.001356      0.001432
      0.27959      4.59482     15.39499         0.003813     -0.001356     -0.001432
      5.62076      0.97912      4.26611         0.002870     -0.002870     -0.000000
      6.32029      2.00506      6.86276        -0.003813      0.001356     -0.001432
      5.47706      0.25610     14.46686        -0.000321     -0.002216     -0.002895
      1.12282      6.34378      5.93464         0.000321      0.002216     -0.002895
      0.25610      5.47706      2.59759        -0.002216     -0.000321      0.002895
      3.25674      5.68133      5.01996        -0.005955      0.007372     -0.000718
      4.21849      6.55668      9.28607        -0.007372     -0.005955     -0.000718
      5.30500      3.57953      2.59665         0.001356      0.003813     -0.001432
      4.59482      0.27959      1.66946        -0.001356      0.003813      0.001432
      5.22480      2.56293      8.96351         0.000244     -0.001409     -0.000417
      1.29488      3.02035     11.12888        -0.001356     -0.003813     -0.001432
      0.91855      3.34314      3.51227        -0.007372      0.005955      0.000718
      0.04320      2.38139     16.31061         0.005955      0.007372      0.000718
      4.27906      4.27906      0.00000        -0.002870     -0.002870     -0.000000
      3.04384      2.17712      1.66853         0.002216     -0.000321     -0.002895
      5.86287      4.67501      4.69740        -0.001409     -0.000244     -0.000417
      3.55604      4.42276     10.20075        -0.002216      0.000321     -0.002895
      5.68133      3.25674     12.04450         0.007372     -0.005955      0.000718
      2.56293      5.22480      8.10094        -0.001409      0.000244      0.000417
      1.92486      0.73701      3.83483         0.000244      0.001409      0.000417
      1.37507      4.03695      0.43128        -0.000244      0.001409     -0.000417
      6.55668      4.21849      7.77838        -0.005955     -0.007372      0.000718
      4.42276      3.55604      6.86370         0.000321     -0.002216      0.002895
      6.34378      1.12282     11.12981         0.002216      0.000321      0.002895
      3.57953      5.30500     14.46780         0.003813      0.001356      0.001432
      0.97912      5.62076     12.79834        -0.002870      0.002870     -0.000000
      4.03695      1.37507     16.63317         0.001409     -0.000244      0.000417
 -----------------------------------------------------------------------------------
    total drift:                                0.000001     -0.000001     -0.000000


--------------------------------------------------------------------------------------------------------



  FREE ENERGIE OF THE ION-ELECTRON SYSTEM (eV)
  ---------------------------------------------------
  free  energy   TOTEN  =      -321.57333858 eV

  energy  without entropy=     -321.57333858  energy(sigma->0) =     -321.57333858
 


--------------------------------------------------------------------------------------------------------


    POTLOK:  cpu time      0.1206: real time      0.1213


--------------------------------------------------------------------------------------------------------


     LOOP+:  cpu time    216.9191: real time    223.7068
    4ORBIT:  cpu time      0.0000: real time      0.0000



 total charge

# of ion       s       p       d       tot
------------------------------------------
    1        1.323   0.740   0.100   2.163
    2        1.323   0.740   0.100   2.163
    3        1.323   0.740   0.100   2.163
    4        1.323   0.740   0.100   2.163
    5        1.323   0.740   0.100   2.163
    6        1.323   0.740   0.100   2.163
    7        1.323   0.740   0.100   2.163
    8        1.323   0.740   0.100   2.163
    9        1.228   2.262   0.000   3.490
   10        1.228   2.262   0.000   3.490
   11        1.228   2.262   0.000   3.490
   12        1.228   2.262   0.000   3.490
   13        1.228   2.262   0.000   3.490
   14        1.228   2.262   0.000   3.490
   15        1.228   2.262   0.000   3.490
   16        1.228   2.262   0.000   3.490
   17        1.581   3.556   0.000   5.137
   18        1.577   3.586   0.000   5.163
   19        1.573   3.586   0.000   5.159
   20        1.589   3.541   0.000   5.130
   21        1.589   3.541   0.000   5.130
   22        1.568   3.486   0.000   5.054
   23        1.577   3.586   0.000   5.163
   24        1.581   3.556   0.000   5.137
   25        1.581   3.556   0.000   5.137
   26        1.568   3.486   0.000   5.054
   27        1.581   3.556   0.000   5.137
   28        1.573   3.586   0.000   5.159
   29        1.573   3.586   0.000   5.159
   30        1.573   3.586   0.000   5.159
   31        1.589   3.541   0.000   5.130
   32        1.589   3.541   0.000   5.130
   33        1.581   3.556   0.000   5.137
   34        1.581   3.556   0.000   5.137
   35        1.577   3.586   0.000   5.163
   36        1.581   3.556   0.000   5.137
   37        1.589   3.541   0.000   5.130
   38        1.589   3.541   0.000   5.130
   39        1.568   3.486   0.000   5.054
   40        1.573   3.586   0.000   5.159
   41        1.577   3.586   0.000   5.163
   42        1.573   3.586   0.000   5.159
   43        1.589   3.541   0.000   5.130
   44        1.577   3.586   0.000   5.163
   45        1.577   3.586   0.000   5.163
   46        1.577   3.586   0.000   5.163
   47        1.589   3.541   0.000   5.130
   48        1.573   3.586   0.000   5.159
   49        1.573   3.586   0.000   5.159
   50        1.581   3.556   0.000   5.137
   51        1.568   3.486   0.000   5.054
   52        1.577   3.586   0.000   5.163
--------------------------------------------------
tot         77.238 152.119   0.800 230.158
 
 BZINTS: Fermi energy:    2.210675;  304.000000 electrons
         Band energy:-0.164475E+04;  BLOECHL correction:   -0.000000

 total amount of memory used by VASP MPI-rank0    81098. kBytes
=======================================================================

   base      :      30000. kBytes
   nonlr-proj:       6340. kBytes
   fftplans  :       3537. kBytes
   grid      :       6014. kBytes
   one-center:         56. kBytes
   wavefun   :      35151. kBytes
 
  
  
 General timing and accounting informations for this job:
 ========================================================
  
                  Total CPU time used (sec):      665.848
                            User time (sec):      662.606
                          System time (sec):        3.242
                         Elapsed time (sec):      686.478
  
                   Maximum memory used (kb):      337288.
                   Average memory used (kb):          N/A
  
                          Minor page faults:        98120
                          Major page faults:          348
                 Voluntary context switches:         9109
