unknown system                          
           1
     6.599879    0.000000    0.000000
     0.000000    6.599879    0.000000
     0.000000    0.000000   17.064453
   Sb   S    O 
     8     8    36
Direct configuration=     1
   0.84537598  0.98602919  0.34525051
   0.98602919  0.84537598  0.65474949
   0.15462402  0.01397081  0.84525051
   0.01397081  0.15462402  0.15474949
   0.51397081  0.34537598  0.59525051
   0.65462402  0.48602919  0.90474949
   0.48602919  0.65462402  0.09525051
   0.34537598  0.51397081  0.40474949
   0.35350864  0.03322932  0.30303284
   0.03322932  0.35350864  0.69696716
   0.46677068  0.85350864  0.55303284
   0.14649136  0.53322932  0.94696716
   0.53322932  0.14649136  0.05303284
   0.96677068  0.64649136  0.19696716
   0.85350864  0.46677068  0.44696716
   0.64649136  0.96677068  0.80303284
   0.30380309  0.95763654  0.59783283
   0.70834851  0.88832931  0.72472617
   0.32987312  0.46119586  0.90222216
   0.50654594  0.13917679  0.79417627
   0.36082321  0.00654594  0.04417627
   0.35164618  0.35164618  0.50000000
   0.11167069  0.29165149  0.77527383
   0.45763654  0.19619691  0.34783283
   0.04236346  0.69619691  0.90216717
   0.85164618  0.14835382  0.25000000
   0.95763654  0.30380309  0.40216717
   0.82987312  0.03880414  0.84777784
   0.17012688  0.96119586  0.34777784
   0.03880414  0.82987312  0.15222216
   0.49345406  0.86082321  0.29417627
   0.63917679  0.99345406  0.54417627
   0.80380309  0.54236346  0.15216717
   0.69619691  0.04236346  0.09783283
   0.79165149  0.38832931  0.52527383
   0.19619691  0.45763654  0.65216717
   0.13917679  0.50654594  0.20582373
   0.00654594  0.36082321  0.95582373
   0.64835382  0.64835382  0.00000000
   0.46119586  0.32987312  0.09777784
   0.88832931  0.70834851  0.27527383
   0.53880414  0.67012688  0.59777784
   0.86082321  0.49345406  0.70582373
   0.38832931  0.79165149  0.47472617
   0.29165149  0.11167069  0.22472617
   0.20834851  0.61167069  0.02527383
   0.99345406  0.63917679  0.45582373
   0.67012688  0.53880414  0.40222216
   0.96119586  0.17012688  0.65222216
   0.54236346  0.80380309  0.84783283
   0.14835382  0.85164618  0.75000000
   0.61167069  0.20834851  0.97472617
