  52  52   0   0
  0.1389993E+02  0.6573822E-09  0.6703021E-09  0.1643946E-08  0.5000000E-15
  1.000000000000000E-004
  CAR 
 unknown system                          
     11.51299862    -24.04019125  301      1.09146984      1.00000000
    -24.040  0.0000E+00  0.0000E+00
    -23.922  0.0000E+00  0.0000E+00
    -23.803  0.0000E+00  0.0000E+00
    -23.685  0.0000E+00  0.0000E+00
    -23.566  0.0000E+00  0.0000E+00
    -23.448  0.0000E+00  0.0000E+00
    -23.329  0.0000E+00  0.0000E+00
    -23.211  0.0000E+00  0.0000E+00
    -23.092  0.0000E+00  0.0000E+00
    -22.974  0.0000E+00  0.0000E+00
    -22.855  0.0000E+00  0.0000E+00
    -22.737  0.0000E+00  0.0000E+00
    -22.618  0.2153E-07  0.2552E-08
    -22.500  0.5811E-01  0.6887E-02
    -22.381  0.2278E+02  0.2706E+01
    -22.263  0.5054E+02  0.8696E+01
    -22.144  0.5949E+02  0.1575E+02
    -22.026  0.2141E+01  0.1600E+02
    -21.907  0.1242E-04  0.1600E+02
    -21.788  0.0000E+00  0.1600E+02
    -21.670  0.0000E+00  0.1600E+02
    -21.551  0.0000E+00  0.1600E+02
    -21.433  0.0000E+00  0.1600E+02
    -21.314  0.0000E+00  0.1600E+02
    -21.196  0.0000E+00  0.1600E+02
    -21.077  0.0000E+00  0.1600E+02
    -20.959  0.0000E+00  0.1600E+02
    -20.840  0.0000E+00  0.1600E+02
    -20.722  0.0000E+00  0.1600E+02
    -20.603  0.0000E+00  0.1600E+02
    -20.485  0.0000E+00  0.1600E+02
    -20.366  0.0000E+00  0.1600E+02
    -20.248  0.0000E+00  0.1600E+02
    -20.129  0.0000E+00  0.1600E+02
    -20.011  0.0000E+00  0.1600E+02
    -19.892  0.0000E+00  0.1600E+02
    -19.774  0.0000E+00  0.1600E+02
    -19.655  0.0000E+00  0.1600E+02
    -19.537  0.0000E+00  0.1600E+02
    -19.418  0.0000E+00  0.1600E+02
    -19.300  0.0000E+00  0.1600E+02
    -19.181  0.0000E+00  0.1600E+02
    -19.063  0.4250E-11  0.1600E+02
    -18.944  0.5624E-03  0.1600E+02
    -18.826  0.3586E+01  0.1643E+02
    -18.707  0.4134E+02  0.2132E+02
    -18.589  0.6531E+02  0.2906E+02
    -18.470  0.2467E+02  0.3199E+02
    -18.352  0.2577E+00  0.3202E+02
    -18.233  0.4526E+02  0.3738E+02
    -18.115  0.1501E+03  0.5517E+02
    -17.996  0.7096E+02  0.6358E+02
    -17.878  0.3568E+01  0.6400E+02
    -17.759  0.7792E-04  0.6400E+02
    -17.641  0.8933E+00  0.6411E+02
    -17.522  0.3354E+02  0.6808E+02
    -17.404  0.3246E+02  0.7193E+02
    -17.285  0.6091E+00  0.7200E+02
    -17.167  0.5973E-05  0.7200E+02
    -17.048  0.0000E+00  0.7200E+02
    -16.930  0.0000E+00  0.7200E+02
    -16.811  0.0000E+00  0.7200E+02
    -16.693  0.0000E+00  0.7200E+02
    -16.574  0.0000E+00  0.7200E+02
    -16.456  0.0000E+00  0.7200E+02
    -16.337  0.0000E+00  0.7200E+02
    -16.218  0.0000E+00  0.7200E+02
    -16.100  0.0000E+00  0.7200E+02
    -15.981  0.0000E+00  0.7200E+02
    -15.863  0.0000E+00  0.7200E+02
    -15.744  0.0000E+00  0.7200E+02
    -15.626  0.0000E+00  0.7200E+02
    -15.507  0.0000E+00  0.7200E+02
    -15.389  0.0000E+00  0.7200E+02
    -15.270  0.0000E+00  0.7200E+02
    -15.152  0.0000E+00  0.7200E+02
    -15.033  0.0000E+00  0.7200E+02
    -14.915  0.0000E+00  0.7200E+02
    -14.796  0.0000E+00  0.7200E+02
    -14.678  0.0000E+00  0.7200E+02
    -14.559  0.0000E+00  0.7200E+02
    -14.441  0.0000E+00  0.7200E+02
    -14.322  0.0000E+00  0.7200E+02
    -14.204  0.0000E+00  0.7200E+02
    -14.085  0.0000E+00  0.7200E+02
    -13.967  0.0000E+00  0.7200E+02
    -13.848  0.0000E+00  0.7200E+02
    -13.730  0.0000E+00  0.7200E+02
    -13.611  0.0000E+00  0.7200E+02
    -13.493  0.0000E+00  0.7200E+02
    -13.374  0.0000E+00  0.7200E+02
    -13.256  0.0000E+00  0.7200E+02
    -13.137  0.0000E+00  0.7200E+02
    -13.019  0.0000E+00  0.7200E+02
    -12.900  0.0000E+00  0.7200E+02
    -12.782  0.0000E+00  0.7200E+02
    -12.663  0.0000E+00  0.7200E+02
    -12.545  0.0000E+00  0.7200E+02
    -12.426  0.0000E+00  0.7200E+02
    -12.308  0.0000E+00  0.7200E+02
    -12.189  0.0000E+00  0.7200E+02
    -12.071  0.0000E+00  0.7200E+02
    -11.952  0.0000E+00  0.7200E+02
    -11.834  0.0000E+00  0.7200E+02
    -11.715  0.0000E+00  0.7200E+02
    -11.597  0.0000E+00  0.7200E+02
    -11.478  0.0000E+00  0.7200E+02
    -11.360  0.0000E+00  0.7200E+02
    -11.241  0.0000E+00  0.7200E+02
    -11.123  0.0000E+00  0.7200E+02
    -11.004  0.0000E+00  0.7200E+02
    -10.886  0.0000E+00  0.7200E+02
    -10.767  0.2124E-07  0.7200E+02
    -10.648  0.5933E-01  0.7201E+02
    -10.530  0.2021E+02  0.7440E+02
    -10.411  0.4580E+02  0.7983E+02
    -10.293  0.7182E+01  0.8068E+02
    -10.174  0.1194E+02  0.8210E+02
    -10.056  0.2272E+02  0.8479E+02
     -9.937  0.2620E+02  0.8789E+02
     -9.819  0.9066E+00  0.8800E+02
     -9.700  0.1039E-04  0.8800E+02
     -9.582  0.1199E-14  0.8800E+02
     -9.463  0.0000E+00  0.8800E+02
     -9.345  0.0000E+00  0.8800E+02
     -9.226  0.0000E+00  0.8800E+02
     -9.108  0.0000E+00  0.8800E+02
     -8.989  0.3036E-06  0.8800E+02
     -8.871  0.9772E-01  0.8801E+02
     -8.752  0.8880E+01  0.8906E+02
     -8.634  0.2184E+02  0.9165E+02
     -8.515  0.2268E+02  0.9434E+02
     -8.397  0.1298E+02  0.9588E+02
     -8.278  0.1019E+01  0.9600E+02
     -8.160  0.4358E-03  0.9600E+02
     -8.041  0.1533E-10  0.9600E+02
     -7.923  0.0000E+00  0.9600E+02
     -7.804  0.0000E+00  0.9600E+02
     -7.686  0.0000E+00  0.9600E+02
     -7.567  0.0000E+00  0.9600E+02
     -7.449  0.0000E+00  0.9600E+02
     -7.330  0.0000E+00  0.9600E+02
     -7.212  0.1079E-11  0.9600E+02
     -7.093  0.3774E-03  0.9600E+02
     -6.975  0.5306E+01  0.9663E+02
     -6.856  0.5222E+02  0.1028E+03
     -6.738  0.9977E+01  0.1040E+03
     -6.619  0.1173E+01  0.1041E+03
     -6.501  0.1607E+02  0.1060E+03
     -6.382  0.1882E+02  0.1083E+03
     -6.264  0.2731E+02  0.1115E+03
     -6.145  0.1917E+02  0.1138E+03
     -6.027  0.1369E+02  0.1154E+03
     -5.908  0.6113E+01  0.1161E+03
     -5.790  0.1572E+02  0.1180E+03
     -5.671  0.9049E+01  0.1191E+03
     -5.553  0.6204E+01  0.1198E+03
     -5.434  0.7082E+01  0.1206E+03
     -5.316  0.2554E+02  0.1237E+03
     -5.197  0.2889E+02  0.1271E+03
     -5.078  0.4984E+02  0.1330E+03
     -4.960  0.4585E+02  0.1384E+03
     -4.841  0.3946E+02  0.1431E+03
     -4.723  0.8189E+01  0.1441E+03
     -4.604  0.2008E+02  0.1465E+03
     -4.486  0.3471E+02  0.1506E+03
     -4.367  0.1163E+02  0.1519E+03
     -4.249  0.4322E+00  0.1520E+03
     -4.130  0.8044E-04  0.1520E+03
     -4.012  0.1199E-11  0.1520E+03
     -3.893  0.5015E-04  0.1520E+03
     -3.775  0.8199E+00  0.1521E+03
     -3.656  0.1087E+02  0.1534E+03
     -3.538  0.1797E+02  0.1555E+03
     -3.419  0.2435E+02  0.1584E+03
     -3.301  0.2014E+02  0.1608E+03
     -3.182  0.1475E+02  0.1625E+03
     -3.064  0.1580E+02  0.1644E+03
     -2.945  0.2441E+02  0.1673E+03
     -2.827  0.2650E+02  0.1704E+03
     -2.708  0.2875E+02  0.1738E+03
     -2.590  0.2266E+02  0.1765E+03
     -2.471  0.3298E+02  0.1804E+03
     -2.353  0.3486E+02  0.1846E+03
     -2.234  0.3855E+02  0.1891E+03
     -2.116  0.4392E+02  0.1943E+03
     -1.997  0.3923E+02  0.1990E+03
     -1.879  0.3580E+02  0.2032E+03
     -1.760  0.3960E+02  0.2079E+03
     -1.642  0.3765E+02  0.2124E+03
     -1.523  0.3922E+02  0.2170E+03
     -1.405  0.3754E+02  0.2215E+03
     -1.286  0.3843E+02  0.2260E+03
     -1.168  0.4279E+02  0.2311E+03
     -1.049  0.5165E+02  0.2372E+03
     -0.931  0.4276E+02  0.2423E+03
     -0.812  0.5180E+02  0.2484E+03
     -0.694  0.5146E+02  0.2545E+03
     -0.575  0.3025E+02  0.2581E+03
     -0.457  0.3933E+02  0.2628E+03
     -0.338  0.3042E+02  0.2664E+03
     -0.220  0.2847E+02  0.2698E+03
     -0.101  0.1840E+02  0.2719E+03
      0.017  0.3249E+02  0.2758E+03
      0.136  0.3947E+02  0.2805E+03
      0.254  0.4918E+02  0.2863E+03
      0.373  0.5454E+02  0.2928E+03
      0.492  0.2697E+02  0.2960E+03
      0.610  0.1894E+02  0.2982E+03
      0.729  0.3914E+02  0.3028E+03
      0.847  0.9711E+01  0.3040E+03
      0.966  0.2435E-01  0.3040E+03
      1.084  0.2545E-07  0.3040E+03
      1.203  0.0000E+00  0.3040E+03
      1.321  0.0000E+00  0.3040E+03
      1.440  0.0000E+00  0.3040E+03
      1.558  0.0000E+00  0.3040E+03
      1.677  0.0000E+00  0.3040E+03
      1.795  0.0000E+00  0.3040E+03
      1.914  0.0000E+00  0.3040E+03
      2.032  0.0000E+00  0.3040E+03
      2.151  0.0000E+00  0.3040E+03
      2.269  0.0000E+00  0.3040E+03
      2.388  0.0000E+00  0.3040E+03
      2.506  0.0000E+00  0.3040E+03
      2.625  0.0000E+00  0.3040E+03
      2.743  0.0000E+00  0.3040E+03
      2.862  0.0000E+00  0.3040E+03
      2.980  0.0000E+00  0.3040E+03
      3.099  0.0000E+00  0.3040E+03
      3.217  0.0000E+00  0.3040E+03
      3.336  0.0000E+00  0.3040E+03
      3.454  0.0000E+00  0.3040E+03
      3.573  0.0000E+00  0.3040E+03
      3.691  0.0000E+00  0.3040E+03
      3.810  0.0000E+00  0.3040E+03
      3.928  0.0000E+00  0.3040E+03
      4.047  0.0000E+00  0.3040E+03
      4.165  0.0000E+00  0.3040E+03
      4.284  0.0000E+00  0.3040E+03
      4.402  0.0000E+00  0.3040E+03
      4.521  0.0000E+00  0.3040E+03
      4.639  0.0000E+00  0.3040E+03
      4.758  0.5092E-10  0.3040E+03
      4.876  0.1829E-02  0.3040E+03
      4.995  0.2816E+01  0.3043E+03
      5.113  0.1304E+02  0.3059E+03
      5.232  0.2004E+02  0.3083E+03
      5.350  0.2466E+02  0.3112E+03
      5.469  0.2292E+02  0.3139E+03
      5.587  0.1854E+02  0.3161E+03
      5.706  0.2981E+02  0.3196E+03
      5.824  0.2062E+02  0.3221E+03
      5.943  0.1916E+02  0.3243E+03
      6.062  0.2289E+02  0.3271E+03
      6.180  0.2744E+02  0.3303E+03
      6.299  0.2115E+02  0.3328E+03
      6.417  0.1196E+02  0.3342E+03
      6.536  0.8016E+01  0.3352E+03
      6.654  0.7135E+01  0.3360E+03
      6.773  0.1056E+02  0.3373E+03
      6.891  0.3043E+02  0.3409E+03
      7.010  0.2476E+02  0.3438E+03
      7.128  0.1559E+01  0.3440E+03
      7.247  0.5699E-03  0.3440E+03
      7.365  0.2452E-10  0.3440E+03
      7.484  0.0000E+00  0.3440E+03
      7.602  0.0000E+00  0.3440E+03
      7.721  0.0000E+00  0.3440E+03
      7.839  0.4816E-08  0.3440E+03
      7.958  0.1538E-01  0.3440E+03
      8.076  0.6653E+01  0.3448E+03
      8.195  0.2275E+02  0.3475E+03
      8.313  0.1870E+02  0.3497E+03
      8.432  0.1684E+02  0.3517E+03
      8.550  0.3099E+01  0.3521E+03
      8.669  0.1219E+01  0.3522E+03
      8.787  0.3657E+01  0.3526E+03
      8.906  0.1060E+02  0.3539E+03
      9.024  0.2149E+02  0.3564E+03
      9.143  0.2350E+02  0.3592E+03
      9.261  0.2285E+02  0.3619E+03
      9.380  0.1523E+02  0.3637E+03
      9.498  0.1032E+02  0.3650E+03
      9.617  0.7714E+01  0.3659E+03
      9.735  0.6629E+01  0.3667E+03
      9.854  0.7884E+01  0.3676E+03
      9.972  0.3350E+01  0.3680E+03
     10.091  0.2582E-01  0.3680E+03
     10.209  0.2847E-07  0.3680E+03
     10.328  0.0000E+00  0.3680E+03
     10.446  0.0000E+00  0.3680E+03
     10.565  0.0000E+00  0.3680E+03
     10.683  0.0000E+00  0.3680E+03
     10.802  0.0000E+00  0.3680E+03
     10.920  0.0000E+00  0.3680E+03
     11.039  0.0000E+00  0.3680E+03
     11.157  0.0000E+00  0.3680E+03
     11.276  0.0000E+00  0.3680E+03
     11.394  0.0000E+00  0.3680E+03
     11.513  0.0000E+00  0.3680E+03
