 running   64 mpi-ranks, on    1 nodes
 distrk:  each k-point on   64 cores,    1 groups
 distr:  one band on    8 cores,    8 groups
 vasp.6.4.0 14Feb23 (build Apr 20 2023 11:28:40) complex                        
  
 POSCAR found type information on POSCAR AsS O 
 POSCAR found :  3 types and      52 ions
 scaLAPACK will be used
 LDA part: xc-table for Pade appr. of Perdew
 POSCAR, INCAR and KPOINTS ok, starting setup
 FFT: planning ... GRIDC
 FFT: planning ... GRID_SOFT
 FFT: planning ... GRID
 WAVECAR not read
 entering main loop
       N       E                     dE             d eps       ncg     rms          rms(c)
DAV:   1     0.241088371467E+04    0.24109E+04   -0.17326E+05  6640   0.172E+03
DAV:   2    -0.151303476298E+03   -0.25622E+04   -0.24906E+04  8120   0.367E+02
DAV:   3    -0.356751056853E+03   -0.20545E+03   -0.20319E+03  7600   0.110E+02
DAV:   4    -0.361755731447E+03   -0.50047E+01   -0.49747E+01  8160   0.168E+01
DAV:   5    -0.361910482717E+03   -0.15475E+00   -0.15451E+00  7960   0.272E+00    0.122E+02
RMM:   6    -0.308778665742E+03    0.53132E+02   -0.21431E+02  6678   0.311E+01    0.638E+01
RMM:   7    -0.311595352990E+03   -0.28167E+01   -0.47121E+01  7323   0.132E+01    0.165E+01
RMM:   8    -0.310848430987E+03    0.74692E+00   -0.41844E+00  7517   0.535E+00    0.324E+00
RMM:   9    -0.310833987702E+03    0.14443E-01   -0.14475E+00  7604   0.286E+00    0.129E+00
RMM:  10    -0.310858962059E+03   -0.24974E-01   -0.40280E-01  8741   0.118E+00    0.557E-01
RMM:  11    -0.310863191292E+03   -0.42292E-02   -0.85849E-02  7920   0.667E-01    0.500E-01
RMM:  12    -0.310862839389E+03    0.35190E-03   -0.18813E-02  8337   0.278E-01    0.212E-01
RMM:  13    -0.310862662108E+03    0.17728E-03   -0.46839E-03  8293   0.144E-01    0.102E-01
RMM:  14    -0.310862825177E+03   -0.16307E-03   -0.13665E-03  9429   0.643E-02    0.506E-02
RMM:  15    -0.310862819390E+03    0.57870E-05   -0.39343E-04  7800   0.412E-02    0.390E-02
RMM:  16    -0.310862803410E+03    0.15980E-04   -0.12136E-04  7776   0.245E-02    0.178E-02
RMM:  17    -0.310862799317E+03    0.40935E-05   -0.23418E-05  7779   0.119E-02    0.660E-03
RMM:  18    -0.310862799613E+03   -0.29680E-06   -0.79926E-06  7109   0.530E-03
   1 F= -.31821770E+03 E0= -.31821770E+03  d E =-.407849E-20
