 ----------------------------------------------------
    OOO  PPPP  EEEEE N   N M   M PPPP
   O   O P   P E     NN  N MM MM P   P
   O   O PPPP  EEEEE N N N M M M PPPP   -- VERSION
   O   O P     E     N  NN M   M P
    OOO  P     EEEEE N   N M   M P
 ----------------------------------------------------
 running   32 mpi-ranks, with    1 threads/rank
 distrk:  each k-point on   32 cores,    1 groups
 distr:  one band on    8 cores,    4 groups
 vasp.6.3.0 20Jan22 (build Jan 28 2022 00:43:23) complex                        
  
 POSCAR found type information on POSCAR TeH O F 
 POSCAR found :  4 types and      22 ions
 scaLAPACK will be used
 LDA part: xc-table for Pade appr. of Perdew
 WARNING: stress and forces are not correct
 POSCAR, INCAR and KPOINTS ok, starting setup
 FFT: planning ... GRIDC
 FFT: planning ... GRID_SOFT
 FFT: planning ... GRID
 WAVECAR not read
 charge-density read from file: unknown                                 
 entering main loop
       N       E                     dE             d eps       ncg     rms          rms(c)
DAV:   1     0.921773556639E+03    0.92177E+03   -0.67500E+04 36576   0.173E+03
DAV:   2    -0.295800679101E+02   -0.95135E+03   -0.92863E+03 45736   0.350E+02
DAV:   3    -0.102972283026E+03   -0.73392E+02   -0.72404E+02 40696   0.105E+02
DAV:   4    -0.104421149084E+03   -0.14489E+01   -0.14387E+01 42648   0.156E+01
DAV:   5    -0.104450548612E+03   -0.29400E-01   -0.29386E-01 41096   0.213E+00
RMM:   6    -0.104451315930E+03   -0.76732E-03   -0.76732E-03 37044   0.362E-01
RMM:   7    -0.104451560757E+03   -0.24483E-03   -0.24518E-03 50311   0.140E-01
RMM:   8    -0.104451566766E+03   -0.60089E-05   -0.12346E-04 46980   0.400E-02
RMM:   9    -0.104451568232E+03   -0.14658E-05   -0.16282E-05 39404   0.105E-02
RMM:  10    -0.104451568250E+03   -0.18652E-07   -0.87124E-07 27604   0.333E-03
   1 F= -.10702064E+03 E0= -.10702064E+03  d E =-.299821E-15
