  52  52   0   0
  0.1429424E+02  0.6599879E-09  0.6599879E-09  0.1706445E-08  0.5000000E-15
  1.000000000000000E-004
  CAR 
 unknown system                          
     12.79247701    -22.71552778  301      2.50255312      1.00000000
    -22.716  0.0000E+00  0.0000E+00
    -22.597  0.0000E+00  0.0000E+00
    -22.479  0.0000E+00  0.0000E+00
    -22.360  0.0000E+00  0.0000E+00
    -22.242  0.0000E+00  0.0000E+00
    -22.124  0.0000E+00  0.0000E+00
    -22.005  0.0000E+00  0.0000E+00
    -21.887  0.0000E+00  0.0000E+00
    -21.769  0.0000E+00  0.0000E+00
    -21.650  0.0000E+00  0.0000E+00
    -21.532  0.0000E+00  0.0000E+00
    -21.414  0.0000E+00  0.0000E+00
    -21.295  0.1817E-07  0.2150E-08
    -21.177  0.4561E-01  0.5399E-02
    -21.058  0.2511E+02  0.2977E+01
    -20.940  0.9762E+02  0.1453E+02
    -20.822  0.1241E+02  0.1600E+02
    -20.703  0.1297E-02  0.1600E+02
    -20.585  0.4825E-11  0.1600E+02
    -20.467  0.0000E+00  0.1600E+02
    -20.348  0.0000E+00  0.1600E+02
    -20.230  0.0000E+00  0.1600E+02
    -20.112  0.0000E+00  0.1600E+02
    -19.993  0.0000E+00  0.1600E+02
    -19.875  0.0000E+00  0.1600E+02
    -19.757  0.0000E+00  0.1600E+02
    -19.638  0.0000E+00  0.1600E+02
    -19.520  0.0000E+00  0.1600E+02
    -19.401  0.0000E+00  0.1600E+02
    -19.283  0.0000E+00  0.1600E+02
    -19.165  0.0000E+00  0.1600E+02
    -19.046  0.0000E+00  0.1600E+02
    -18.928  0.0000E+00  0.1600E+02
    -18.810  0.0000E+00  0.1600E+02
    -18.691  0.0000E+00  0.1600E+02
    -18.573  0.0000E+00  0.1600E+02
    -18.455  0.0000E+00  0.1600E+02
    -18.336  0.0000E+00  0.1600E+02
    -18.218  0.0000E+00  0.1600E+02
    -18.099  0.0000E+00  0.1600E+02
    -17.981  0.0000E+00  0.1600E+02
    -17.863  0.0000E+00  0.1600E+02
    -17.744  0.0000E+00  0.1600E+02
    -17.626  0.0000E+00  0.1600E+02
    -17.508  0.0000E+00  0.1600E+02
    -17.389  0.8858E-11  0.1600E+02
    -17.271  0.1061E-02  0.1600E+02
    -17.153  0.8097E+01  0.1696E+02
    -17.034  0.8847E+02  0.2743E+02
    -16.916  0.5300E+02  0.3370E+02
    -16.798  0.1069E+03  0.4635E+02
    -16.679  0.6418E+02  0.5395E+02
    -16.561  0.8444E+02  0.6394E+02
    -16.442  0.4735E+00  0.6400E+02
    -16.324  0.2144E-06  0.6400E+02
    -16.206  0.0000E+00  0.6400E+02
    -16.087  0.0000E+00  0.6400E+02
    -15.969  0.0000E+00  0.6400E+02
    -15.851  0.0000E+00  0.6400E+02
    -15.732  0.0000E+00  0.6400E+02
    -15.614  0.0000E+00  0.6400E+02
    -15.496  0.0000E+00  0.6400E+02
    -15.377  0.9380E-16  0.6400E+02
    -15.259  0.1072E-05  0.6400E+02
    -15.140  0.4385E+00  0.6405E+02
    -15.022  0.4685E+02  0.6960E+02
    -14.904  0.2029E+02  0.7200E+02
    -14.785  0.9885E-02  0.7200E+02
    -14.667  0.2928E-09  0.7200E+02
    -14.549  0.0000E+00  0.7200E+02
    -14.430  0.0000E+00  0.7200E+02
    -14.312  0.0000E+00  0.7200E+02
    -14.194  0.0000E+00  0.7200E+02
    -14.075  0.0000E+00  0.7200E+02
    -13.957  0.0000E+00  0.7200E+02
    -13.839  0.0000E+00  0.7200E+02
    -13.720  0.0000E+00  0.7200E+02
    -13.602  0.0000E+00  0.7200E+02
    -13.483  0.0000E+00  0.7200E+02
    -13.365  0.0000E+00  0.7200E+02
    -13.247  0.0000E+00  0.7200E+02
    -13.128  0.0000E+00  0.7200E+02
    -13.010  0.0000E+00  0.7200E+02
    -12.892  0.0000E+00  0.7200E+02
    -12.773  0.0000E+00  0.7200E+02
    -12.655  0.0000E+00  0.7200E+02
    -12.537  0.0000E+00  0.7200E+02
    -12.418  0.0000E+00  0.7200E+02
    -12.300  0.0000E+00  0.7200E+02
    -12.181  0.0000E+00  0.7200E+02
    -12.063  0.0000E+00  0.7200E+02
    -11.945  0.0000E+00  0.7200E+02
    -11.826  0.0000E+00  0.7200E+02
    -11.708  0.0000E+00  0.7200E+02
    -11.590  0.0000E+00  0.7200E+02
    -11.471  0.0000E+00  0.7200E+02
    -11.353  0.0000E+00  0.7200E+02
    -11.235  0.0000E+00  0.7200E+02
    -11.116  0.0000E+00  0.7200E+02
    -10.998  0.0000E+00  0.7200E+02
    -10.880  0.0000E+00  0.7200E+02
    -10.761  0.0000E+00  0.7200E+02
    -10.643  0.0000E+00  0.7200E+02
    -10.524  0.0000E+00  0.7200E+02
    -10.406  0.0000E+00  0.7200E+02
    -10.288  0.0000E+00  0.7200E+02
    -10.169  0.0000E+00  0.7200E+02
    -10.051  0.0000E+00  0.7200E+02
     -9.933  0.0000E+00  0.7200E+02
     -9.814  0.0000E+00  0.7200E+02
     -9.696  0.0000E+00  0.7200E+02
     -9.578  0.0000E+00  0.7200E+02
     -9.459  0.0000E+00  0.7200E+02
     -9.341  0.0000E+00  0.7200E+02
     -9.222  0.0000E+00  0.7200E+02
     -9.104  0.0000E+00  0.7200E+02
     -8.986  0.0000E+00  0.7200E+02
     -8.867  0.0000E+00  0.7200E+02
     -8.749  0.0000E+00  0.7200E+02
     -8.631  0.8780E-14  0.7200E+02
     -8.512  0.4964E-05  0.7200E+02
     -8.394  0.8334E-01  0.7201E+02
     -8.276  0.2193E+01  0.7227E+02
     -8.157  0.7206E+01  0.7312E+02
     -8.039  0.1120E+02  0.7445E+02
     -7.921  0.1794E+02  0.7657E+02
     -7.802  0.1622E+02  0.7849E+02
     -7.684  0.1263E+02  0.7999E+02
     -7.565  0.7950E+01  0.8093E+02
     -7.447  0.2341E+02  0.8370E+02
     -7.329  0.3084E+02  0.8735E+02
     -7.210  0.5505E+01  0.8800E+02
     -7.092  0.1264E+00  0.8801E+02
     -6.974  0.5662E+01  0.8868E+02
     -6.855  0.1649E+02  0.9064E+02
     -6.737  0.1865E+02  0.9284E+02
     -6.619  0.1532E+02  0.9466E+02
     -6.500  0.8047E+01  0.9561E+02
     -6.382  0.2890E+01  0.9595E+02
     -6.263  0.4122E+00  0.9600E+02
     -6.145  0.2526E-02  0.9600E+02
     -6.027  0.1250E-08  0.9600E+02
     -5.908  0.0000E+00  0.9600E+02
     -5.790  0.2814E-15  0.9600E+02
     -5.672  0.6598E-06  0.9600E+02
     -5.553  0.3532E-01  0.9600E+02
     -5.435  0.1117E+01  0.9614E+02
     -5.317  0.3131E+01  0.9651E+02
     -5.198  0.1143E+02  0.9786E+02
     -5.080  0.1398E+02  0.9951E+02
     -4.962  0.1867E+02  0.1017E+03
     -4.843  0.2155E+02  0.1043E+03
     -4.725  0.3917E+02  0.1089E+03
     -4.606  0.2861E+02  0.1123E+03
     -4.488  0.1824E+02  0.1145E+03
     -4.370  0.1956E+02  0.1168E+03
     -4.251  0.2260E+02  0.1194E+03
     -4.133  0.4539E+01  0.1200E+03
     -4.015  0.7566E+00  0.1201E+03
     -3.896  0.2520E+02  0.1231E+03
     -3.778  0.5538E+02  0.1296E+03
     -3.660  0.5003E+02  0.1355E+03
     -3.541  0.5148E+02  0.1416E+03
     -3.423  0.1947E+02  0.1439E+03
     -3.304  0.1145E+01  0.1441E+03
     -3.186  0.1243E+02  0.1455E+03
     -3.068  0.2589E+02  0.1486E+03
     -2.949  0.2046E+02  0.1510E+03
     -2.831  0.6267E+01  0.1518E+03
     -2.713  0.1834E+01  0.1520E+03
     -2.594  0.1587E+00  0.1520E+03
     -2.476  0.7361E-04  0.1520E+03
     -2.358  0.1124E-11  0.1520E+03
     -2.239  0.5942E-05  0.1520E+03
     -2.121  0.5075E+00  0.1521E+03
     -2.003  0.2645E+02  0.1552E+03
     -1.884  0.3247E+02  0.1590E+03
     -1.766  0.8268E+01  0.1600E+03
     -1.647  0.1289E+02  0.1615E+03
     -1.529  0.2826E+02  0.1649E+03
     -1.411  0.3263E+02  0.1687E+03
     -1.292  0.2980E+02  0.1723E+03
     -1.174  0.2888E+02  0.1757E+03
     -1.056  0.3156E+02  0.1794E+03
     -0.937  0.4403E+02  0.1846E+03
     -0.819  0.5525E+02  0.1912E+03
     -0.701  0.4787E+02  0.1968E+03
     -0.582  0.4031E+02  0.2016E+03
     -0.464  0.4251E+02  0.2066E+03
     -0.345  0.4154E+02  0.2116E+03
     -0.227  0.5241E+02  0.2178E+03
     -0.109  0.4261E+02  0.2228E+03
      0.010  0.1090E+02  0.2241E+03
      0.128  0.1930E+01  0.2243E+03
      0.246  0.8750E+01  0.2254E+03
      0.365  0.2718E+02  0.2286E+03
      0.483  0.2421E+02  0.2314E+03
      0.601  0.3661E+02  0.2358E+03
      0.720  0.3723E+02  0.2402E+03
      0.838  0.5805E+02  0.2471E+03
      0.956  0.6261E+02  0.2545E+03
      1.075  0.2379E+02  0.2573E+03
      1.193  0.4529E+02  0.2626E+03
      1.312  0.5679E+02  0.2694E+03
      1.430  0.5950E+02  0.2764E+03
      1.548  0.3978E+02  0.2811E+03
      1.667  0.4417E+02  0.2863E+03
      1.785  0.4636E+02  0.2918E+03
      1.903  0.5902E+02  0.2988E+03
      2.022  0.3289E+02  0.3027E+03
      2.140  0.9280E+01  0.3038E+03
      2.258  0.1566E+01  0.3040E+03
      2.377  0.3303E-01  0.3040E+03
      2.495  0.4496E-06  0.3040E+03
      2.614  0.0000E+00  0.3040E+03
      2.732  0.0000E+00  0.3040E+03
      2.850  0.0000E+00  0.3040E+03
      2.969  0.0000E+00  0.3040E+03
      3.087  0.0000E+00  0.3040E+03
      3.205  0.0000E+00  0.3040E+03
      3.324  0.0000E+00  0.3040E+03
      3.442  0.0000E+00  0.3040E+03
      3.560  0.0000E+00  0.3040E+03
      3.679  0.0000E+00  0.3040E+03
      3.797  0.0000E+00  0.3040E+03
      3.915  0.0000E+00  0.3040E+03
      4.034  0.0000E+00  0.3040E+03
      4.152  0.0000E+00  0.3040E+03
      4.271  0.0000E+00  0.3040E+03
      4.389  0.0000E+00  0.3040E+03
      4.507  0.0000E+00  0.3040E+03
      4.626  0.0000E+00  0.3040E+03
      4.744  0.0000E+00  0.3040E+03
      4.862  0.0000E+00  0.3040E+03
      4.981  0.0000E+00  0.3040E+03
      5.099  0.0000E+00  0.3040E+03
      5.217  0.0000E+00  0.3040E+03
      5.336  0.0000E+00  0.3040E+03
      5.454  0.0000E+00  0.3040E+03
      5.573  0.0000E+00  0.3040E+03
      5.691  0.0000E+00  0.3040E+03
      5.809  0.0000E+00  0.3040E+03
      5.928  0.0000E+00  0.3040E+03
      6.046  0.0000E+00  0.3040E+03
      6.164  0.6504E-09  0.3040E+03
      6.283  0.5318E-02  0.3040E+03
      6.401  0.3022E+01  0.3044E+03
      6.519  0.1537E+02  0.3062E+03
      6.638  0.1970E+02  0.3085E+03
      6.756  0.1693E+02  0.3105E+03
      6.874  0.1316E+02  0.3121E+03
      6.993  0.2880E+02  0.3155E+03
      7.111  0.1312E+02  0.3170E+03
      7.230  0.1915E+02  0.3193E+03
      7.348  0.4593E+02  0.3247E+03
      7.466  0.2672E+02  0.3279E+03
      7.585  0.2753E+02  0.3312E+03
      7.703  0.1605E+02  0.3331E+03
      7.821  0.2112E+02  0.3356E+03
      7.940  0.2466E+02  0.3385E+03
      8.058  0.1535E+02  0.3403E+03
      8.176  0.2672E+02  0.3435E+03
      8.295  0.4602E+01  0.3440E+03
      8.413  0.3899E-02  0.3440E+03
      8.532  0.1601E-08  0.3440E+03
      8.650  0.0000E+00  0.3440E+03
      8.768  0.0000E+00  0.3440E+03
      8.887  0.4502E-15  0.3440E+03
      9.005  0.1828E-05  0.3440E+03
      9.123  0.1886E+00  0.3440E+03
      9.242  0.7799E+01  0.3449E+03
      9.360  0.1751E+02  0.3470E+03
      9.478  0.2113E+02  0.3495E+03
      9.597  0.1673E+02  0.3515E+03
      9.715  0.4150E+01  0.3520E+03
      9.833  0.2045E+00  0.3520E+03
      9.952  0.2211E+00  0.3520E+03
     10.070  0.7626E-01  0.3520E+03
     10.189  0.1747E+01  0.3523E+03
     10.307  0.5200E+01  0.3529E+03
     10.425  0.1498E+02  0.3546E+03
     10.544  0.1468E+02  0.3564E+03
     10.662  0.2154E+02  0.3589E+03
     10.780  0.2873E+02  0.3623E+03
     10.899  0.2279E+02  0.3650E+03
     11.017  0.1280E+02  0.3665E+03
     11.135  0.9371E+01  0.3677E+03
     11.254  0.2898E+01  0.3680E+03
     11.372  0.2288E-01  0.3680E+03
     11.491  0.2906E-07  0.3680E+03
     11.609  0.0000E+00  0.3680E+03
     11.727  0.0000E+00  0.3680E+03
     11.846  0.0000E+00  0.3680E+03
     11.964  0.0000E+00  0.3680E+03
     12.082  0.0000E+00  0.3680E+03
     12.201  0.0000E+00  0.3680E+03
     12.319  0.0000E+00  0.3680E+03
     12.437  0.0000E+00  0.3680E+03
     12.556  0.0000E+00  0.3680E+03
     12.674  0.0000E+00  0.3680E+03
     12.792  0.0000E+00  0.3680E+03
