Automatically generated mesh
      12
Reciprocal lattice
    0.00000000000000    0.00000000000000    0.00000000000000             1
    0.20000000000000   -0.00000000000000    0.00000000000000             4
    0.40000000000000   -0.00000000000000    0.00000000000000             4
    0.20000000000000    0.20000000000000    0.00000000000000             4
    0.40000000000000    0.20000000000000    0.00000000000000             8
    0.40000000000000    0.40000000000000    0.00000000000000             4
    0.00000000000000    0.00000000000000    0.50000000000000             1
    0.20000000000000   -0.00000000000000    0.50000000000000             4
    0.40000000000000   -0.00000000000000    0.50000000000000             4
    0.20000000000000    0.20000000000000    0.50000000000000             4
    0.40000000000000    0.20000000000000    0.50000000000000             8
    0.40000000000000    0.40000000000000    0.50000000000000             4
