       N       E                     dE             d eps       ncg     rms          rms(c)
DAV:   1     0.277513762379E+04    0.27751E+04   -0.16406E+05  4440   0.170E+03
DAV:   2    -0.917995140907E+02   -0.28669E+04   -0.27813E+04  5648   0.357E+02
DAV:   3    -0.360145540590E+03   -0.26835E+03   -0.26550E+03  4896   0.127E+02
DAV:   4    -0.366696367661E+03   -0.65508E+01   -0.65147E+01  5184   0.202E+01
DAV:   5    -0.367031203159E+03   -0.33484E+00   -0.33468E+00  6336   0.406E+00    0.123E+02
RMM:   6    -0.310788159549E+03    0.56243E+02   -0.22369E+02  4454   0.322E+01    0.649E+01
RMM:   7    -0.314471029311E+03   -0.36829E+01   -0.59485E+01  5018   0.148E+01    0.159E+01
RMM:   8    -0.313139720010E+03    0.13313E+01   -0.59766E+00  5000   0.637E+00    0.345E+00
RMM:   9    -0.313182752071E+03   -0.43032E-01   -0.24081E+00  5143   0.365E+00    0.123E+00
RMM:  10    -0.313205608688E+03   -0.22857E-01   -0.52878E-01  5744   0.147E+00    0.687E-01
RMM:  11    -0.313214940461E+03   -0.93318E-02   -0.13830E-01  5633   0.775E-01    0.522E-01
RMM:  12    -0.313214753489E+03    0.18697E-03   -0.27090E-02  5421   0.344E-01    0.141E-01
RMM:  13    -0.313215204678E+03   -0.45119E-03   -0.57022E-03  5608   0.159E-01    0.105E-01
RMM:  14    -0.313215206872E+03   -0.21936E-05   -0.15730E-03  5383   0.879E-02    0.121E-01
RMM:  15    -0.313215230094E+03   -0.23222E-04   -0.44158E-04  5459   0.467E-02    0.441E-02
RMM:  16    -0.313215229484E+03    0.61014E-06   -0.11403E-04  6017   0.192E-02    0.312E-02
RMM:  17    -0.313215225938E+03    0.35458E-05   -0.15166E-05  5267   0.843E-03    0.168E-02
RMM:  18    -0.313215223537E+03    0.24010E-05   -0.12201E-05  5156   0.816E-03    0.545E-03
RMM:  19    -0.313215223586E+03   -0.48865E-07   -0.28785E-06  3601   0.378E-03
   1 F= -.32157356E+03 E0= -.32157356E+03  d E =-.917823E-18
