  20  20   0   0
  0.1683121E+02  0.7808245E-09  0.7808245E-09  0.7808245E-09  0.5000000E-15
  1.000000000000000E-004
  CAR 
 unknown system                          
     11.99418437    -15.62512063  301      4.54272604      1.00000000
    -15.625  0.0000E+00  0.0000E+00
    -15.533  0.0000E+00  0.0000E+00
    -15.441  0.0000E+00  0.0000E+00
    -15.349  0.0000E+00  0.0000E+00
    -15.257  0.0000E+00  0.0000E+00
    -15.165  0.0000E+00  0.0000E+00
    -15.073  0.0000E+00  0.0000E+00
    -14.981  0.0000E+00  0.0000E+00
    -14.889  0.0000E+00  0.0000E+00
    -14.797  0.0000E+00  0.0000E+00
    -14.704  0.0000E+00  0.0000E+00
    -14.612  0.5779E-12  0.5321E-13
    -14.520  0.1787E-05  0.1645E-06
    -14.428  0.1089E-01  0.1003E-02
    -14.336  0.8629E+00  0.8044E-01
    -14.244  0.3941E+01  0.4433E+00
    -14.152  0.7837E+01  0.1165E+01
    -14.060  0.7167E+01  0.1825E+01
    -13.968  0.3167E+01  0.2116E+01
    -13.876  0.5836E+01  0.2653E+01
    -13.784  0.6478E+01  0.3250E+01
    -13.692  0.4856E+01  0.3697E+01
    -13.600  0.1707E+01  0.3854E+01
    -13.508  0.1404E+01  0.3983E+01
    -13.416  0.5412E+00  0.4033E+01
    -13.324  0.1169E+02  0.5109E+01
    -13.231  0.1979E+02  0.6931E+01
    -13.139  0.1336E+02  0.8161E+01
    -13.047  0.1685E+02  0.9713E+01
    -12.955  0.2262E+02  0.1180E+02
    -12.863  0.1885E+02  0.1353E+02
    -12.771  0.2287E+02  0.1564E+02
    -12.679  0.1189E+02  0.1673E+02
    -12.587  0.1829E+02  0.1841E+02
    -12.495  0.1645E+02  0.1993E+02
    -12.403  0.2006E+02  0.2178E+02
    -12.311  0.1962E+02  0.2358E+02
    -12.219  0.4459E+01  0.2399E+02
    -12.127  0.8097E-01  0.2400E+02
    -12.035  0.1547E-04  0.2400E+02
    -11.943  0.9338E-11  0.2400E+02
    -11.850  0.0000E+00  0.2400E+02
    -11.758  0.0000E+00  0.2400E+02
    -11.666  0.0000E+00  0.2400E+02
    -11.574  0.0000E+00  0.2400E+02
    -11.482  0.0000E+00  0.2400E+02
    -11.390  0.0000E+00  0.2400E+02
    -11.298  0.0000E+00  0.2400E+02
    -11.206  0.0000E+00  0.2400E+02
    -11.114  0.0000E+00  0.2400E+02
    -11.022  0.0000E+00  0.2400E+02
    -10.930  0.0000E+00  0.2400E+02
    -10.838  0.0000E+00  0.2400E+02
    -10.746  0.0000E+00  0.2400E+02
    -10.654  0.0000E+00  0.2400E+02
    -10.562  0.0000E+00  0.2400E+02
    -10.470  0.0000E+00  0.2400E+02
    -10.377  0.0000E+00  0.2400E+02
    -10.285  0.0000E+00  0.2400E+02
    -10.193  0.0000E+00  0.2400E+02
    -10.101  0.0000E+00  0.2400E+02
    -10.009  0.0000E+00  0.2400E+02
     -9.917  0.0000E+00  0.2400E+02
     -9.825  0.0000E+00  0.2400E+02
     -9.733  0.0000E+00  0.2400E+02
     -9.641  0.0000E+00  0.2400E+02
     -9.549  0.0000E+00  0.2400E+02
     -9.457  0.0000E+00  0.2400E+02
     -9.365  0.0000E+00  0.2400E+02
     -9.273  0.0000E+00  0.2400E+02
     -9.181  0.0000E+00  0.2400E+02
     -9.089  0.0000E+00  0.2400E+02
     -8.996  0.0000E+00  0.2400E+02
     -8.904  0.0000E+00  0.2400E+02
     -8.812  0.0000E+00  0.2400E+02
     -8.720  0.0000E+00  0.2400E+02
     -8.628  0.0000E+00  0.2400E+02
     -8.536  0.0000E+00  0.2400E+02
     -8.444  0.0000E+00  0.2400E+02
     -8.352  0.0000E+00  0.2400E+02
     -8.260  0.0000E+00  0.2400E+02
     -8.168  0.0000E+00  0.2400E+02
     -8.076  0.0000E+00  0.2400E+02
     -7.984  0.0000E+00  0.2400E+02
     -7.892  0.0000E+00  0.2400E+02
     -7.800  0.0000E+00  0.2400E+02
     -7.708  0.0000E+00  0.2400E+02
     -7.616  0.0000E+00  0.2400E+02
     -7.523  0.0000E+00  0.2400E+02
     -7.431  0.0000E+00  0.2400E+02
     -7.339  0.0000E+00  0.2400E+02
     -7.247  0.0000E+00  0.2400E+02
     -7.155  0.0000E+00  0.2400E+02
     -7.063  0.0000E+00  0.2400E+02
     -6.971  0.0000E+00  0.2400E+02
     -6.879  0.0000E+00  0.2400E+02
     -6.787  0.0000E+00  0.2400E+02
     -6.695  0.0000E+00  0.2400E+02
     -6.603  0.0000E+00  0.2400E+02
     -6.511  0.0000E+00  0.2400E+02
     -6.419  0.0000E+00  0.2400E+02
     -6.327  0.0000E+00  0.2400E+02
     -6.235  0.0000E+00  0.2400E+02
     -6.142  0.0000E+00  0.2400E+02
     -6.050  0.0000E+00  0.2400E+02
     -5.958  0.0000E+00  0.2400E+02
     -5.866  0.0000E+00  0.2400E+02
     -5.774  0.0000E+00  0.2400E+02
     -5.682  0.0000E+00  0.2400E+02
     -5.590  0.0000E+00  0.2400E+02
     -5.498  0.0000E+00  0.2400E+02
     -5.406  0.0000E+00  0.2400E+02
     -5.314  0.0000E+00  0.2400E+02
     -5.222  0.0000E+00  0.2400E+02
     -5.130  0.0000E+00  0.2400E+02
     -5.038  0.0000E+00  0.2400E+02
     -4.946  0.0000E+00  0.2400E+02
     -4.854  0.0000E+00  0.2400E+02
     -4.762  0.3970E-11  0.2400E+02
     -4.669  0.1290E-04  0.2400E+02
     -4.577  0.7265E-01  0.2401E+02
     -4.485  0.3687E+01  0.2435E+02
     -4.393  0.1213E+02  0.2546E+02
     -4.301  0.1120E+02  0.2649E+02
     -4.209  0.1439E+02  0.2782E+02
     -4.117  0.1484E+02  0.2919E+02
     -4.025  0.1160E+02  0.3025E+02
     -3.933  0.1133E+02  0.3130E+02
     -3.841  0.1754E+02  0.3291E+02
     -3.749  0.2233E+02  0.3497E+02
     -3.657  0.1031E+02  0.3592E+02
     -3.565  0.9186E+00  0.3600E+02
     -3.473  0.4044E-02  0.3600E+02
     -3.381  0.1044E-06  0.3600E+02
     -3.288  0.4361E-14  0.3600E+02
     -3.196  0.0000E+00  0.3600E+02
     -3.104  0.0000E+00  0.3600E+02
     -3.012  0.0000E+00  0.3600E+02
     -2.920  0.0000E+00  0.3600E+02
     -2.828  0.0000E+00  0.3600E+02
     -2.736  0.0000E+00  0.3600E+02
     -2.644  0.0000E+00  0.3600E+02
     -2.552  0.0000E+00  0.3600E+02
     -2.460  0.7592E-14  0.3600E+02
     -2.368  0.1048E-06  0.3600E+02
     -2.276  0.2121E-02  0.3600E+02
     -2.184  0.1088E+00  0.3601E+02
     -2.092  0.9425E-01  0.3602E+02
     -2.000  0.1098E+01  0.3612E+02
     -1.908  0.1219E+01  0.3623E+02
     -1.815  0.3572E+00  0.3627E+02
     -1.723  0.1873E+01  0.3644E+02
     -1.631  0.3837E+01  0.3679E+02
     -1.539  0.1853E+01  0.3696E+02
     -1.447  0.3322E+01  0.3727E+02
     -1.355  0.2793E+01  0.3752E+02
     -1.263  0.3020E+01  0.3780E+02
     -1.171  0.1319E+01  0.3792E+02
     -1.079  0.8586E+00  0.3800E+02
     -0.987  0.1468E+01  0.3814E+02
     -0.895  0.1540E+01  0.3828E+02
     -0.803  0.4986E+01  0.3874E+02
     -0.711  0.6454E+01  0.3933E+02
     -0.619  0.2548E+02  0.4168E+02
     -0.527  0.2646E+02  0.4412E+02
     -0.435  0.8878E+01  0.4493E+02
     -0.342  0.1147E+02  0.4599E+02
     -0.250  0.1737E+02  0.4759E+02
     -0.158  0.3924E+01  0.4795E+02
     -0.066  0.1700E+02  0.4951E+02
      0.026  0.2719E+02  0.5202E+02
      0.118  0.1310E+02  0.5322E+02
      0.210  0.5890E+01  0.5377E+02
      0.302  0.5438E+00  0.5382E+02
      0.394  0.4241E+01  0.5421E+02
      0.486  0.4572E+01  0.5463E+02
      0.578  0.5235E+01  0.5511E+02
      0.670  0.1729E+02  0.5670E+02
      0.762  0.2045E+02  0.5858E+02
      0.854  0.1515E+02  0.5998E+02
      0.946  0.7164E+01  0.6064E+02
      1.039  0.7762E+01  0.6135E+02
      1.131  0.6913E+01  0.6199E+02
      1.223  0.1186E+02  0.6308E+02
      1.315  0.1011E+02  0.6401E+02
      1.407  0.1476E+02  0.6537E+02
      1.499  0.1154E+02  0.6643E+02
      1.591  0.6279E+01  0.6701E+02
      1.683  0.4154E+01  0.6739E+02
      1.775  0.1629E+02  0.6889E+02
      1.867  0.1548E+02  0.7032E+02
      1.959  0.9126E+01  0.7116E+02
      2.051  0.6716E+01  0.7178E+02
      2.143  0.3074E+01  0.7206E+02
      2.235  0.9235E+01  0.7291E+02
      2.327  0.1587E+02  0.7437E+02
      2.419  0.1368E+02  0.7563E+02
      2.512  0.1829E+02  0.7731E+02
      2.604  0.2452E+02  0.7957E+02
      2.696  0.1817E+02  0.8124E+02
      2.788  0.1789E+02  0.8289E+02
      2.880  0.2056E+02  0.8478E+02
      2.972  0.1491E+02  0.8616E+02
      3.064  0.1165E+02  0.8723E+02
      3.156  0.7726E+01  0.8794E+02
      3.248  0.6720E+01  0.8856E+02
      3.340  0.1418E+02  0.8986E+02
      3.432  0.1932E+02  0.9164E+02
      3.524  0.2066E+02  0.9354E+02
      3.616  0.3105E+02  0.9640E+02
      3.708  0.2498E+02  0.9870E+02
      3.800  0.3991E+02  0.1024E+03
      3.893  0.1598E+02  0.1038E+03
      3.985  0.1343E+02  0.1051E+03
      4.077  0.2452E+02  0.1073E+03
      4.169  0.2762E+02  0.1099E+03
      4.261  0.1791E+02  0.1115E+03
      4.353  0.5007E+01  0.1120E+03
      4.445  0.3169E-01  0.1120E+03
      4.537  0.6584E-06  0.1120E+03
      4.629  0.2223E-13  0.1120E+03
      4.721  0.0000E+00  0.1120E+03
      4.813  0.0000E+00  0.1120E+03
      4.905  0.0000E+00  0.1120E+03
      4.997  0.0000E+00  0.1120E+03
      5.089  0.0000E+00  0.1120E+03
      5.181  0.0000E+00  0.1120E+03
      5.273  0.0000E+00  0.1120E+03
      5.366  0.0000E+00  0.1120E+03
      5.458  0.0000E+00  0.1120E+03
      5.550  0.0000E+00  0.1120E+03
      5.642  0.0000E+00  0.1120E+03
      5.734  0.0000E+00  0.1120E+03
      5.826  0.0000E+00  0.1120E+03
      5.918  0.0000E+00  0.1120E+03
      6.010  0.0000E+00  0.1120E+03
      6.102  0.0000E+00  0.1120E+03
      6.194  0.0000E+00  0.1120E+03
      6.286  0.0000E+00  0.1120E+03
      6.378  0.0000E+00  0.1120E+03
      6.470  0.0000E+00  0.1120E+03
      6.562  0.0000E+00  0.1120E+03
      6.654  0.0000E+00  0.1120E+03
      6.747  0.0000E+00  0.1120E+03
      6.839  0.0000E+00  0.1120E+03
      6.931  0.8683E-16  0.1120E+03
      7.023  0.6543E-08  0.1120E+03
      7.115  0.7798E-03  0.1120E+03
      7.207  0.1857E+00  0.1120E+03
      7.299  0.3328E+00  0.1120E+03
      7.391  0.9273E+00  0.1121E+03
      7.483  0.2696E+01  0.1124E+03
      7.575  0.1659E+01  0.1125E+03
      7.667  0.1840E+01  0.1127E+03
      7.759  0.5558E+01  0.1132E+03
      7.851  0.6087E+01  0.1138E+03
      7.943  0.4553E+01  0.1142E+03
      8.035  0.6675E+01  0.1148E+03
      8.127  0.1237E+02  0.1159E+03
      8.220  0.1395E+02  0.1172E+03
      8.312  0.4396E+01  0.1176E+03
      8.404  0.1071E+02  0.1186E+03
      8.496  0.6233E+01  0.1192E+03
      8.588  0.1414E+02  0.1205E+03
      8.680  0.1075E+02  0.1215E+03
      8.772  0.9015E+01  0.1223E+03
      8.864  0.5553E+01  0.1228E+03
      8.956  0.9618E+01  0.1237E+03
      9.048  0.5697E+01  0.1242E+03
      9.140  0.8088E+01  0.1250E+03
      9.232  0.9484E+01  0.1259E+03
      9.324  0.1621E+02  0.1274E+03
      9.416  0.1095E+02  0.1284E+03
      9.508  0.3544E+01  0.1287E+03
      9.601  0.3265E+01  0.1290E+03
      9.693  0.6923E+01  0.1296E+03
      9.785  0.5121E+01  0.1301E+03
      9.877  0.8217E+01  0.1309E+03
      9.969  0.8298E+01  0.1316E+03
     10.061  0.8627E+01  0.1324E+03
     10.153  0.1225E+02  0.1335E+03
     10.245  0.6152E+01  0.1341E+03
     10.337  0.5061E+01  0.1346E+03
     10.429  0.4969E+01  0.1350E+03
     10.521  0.3017E+01  0.1353E+03
     10.613  0.3062E+01  0.1356E+03
     10.705  0.3284E+01  0.1359E+03
     10.797  0.1146E+01  0.1360E+03
     10.889  0.6777E-01  0.1360E+03
     10.981  0.1414E-04  0.1360E+03
     11.074  0.4622E-11  0.1360E+03
     11.166  0.0000E+00  0.1360E+03
     11.258  0.0000E+00  0.1360E+03
     11.350  0.0000E+00  0.1360E+03
     11.442  0.0000E+00  0.1360E+03
     11.534  0.0000E+00  0.1360E+03
     11.626  0.0000E+00  0.1360E+03
     11.718  0.0000E+00  0.1360E+03
     11.810  0.0000E+00  0.1360E+03
     11.902  0.0000E+00  0.1360E+03
     11.994  0.0000E+00  0.1360E+03
