       N       E                     dE             d eps       ncg     rms          rms(c)
DAV:   1     0.106574890161E+04    0.10657E+04   -0.53080E+04  1360   0.163E+03
DAV:   2     0.124024255227E+01   -0.10645E+04   -0.10209E+04  1704   0.320E+02
DAV:   3    -0.137360606804E+03   -0.13860E+03   -0.13728E+03  1588   0.136E+02
DAV:   4    -0.141511012229E+03   -0.41504E+01   -0.41247E+01  1656   0.241E+01
DAV:   5    -0.141667965839E+03   -0.15695E+00   -0.15684E+00  1704   0.447E+00    0.303E+01
RMM:   6    -0.117440743575E+03    0.24227E+02   -0.11912E+02  1485   0.353E+01    0.134E+01
RMM:   7    -0.119354891244E+03   -0.19141E+01   -0.24538E+01  1729   0.119E+01    0.744E+00
RMM:   8    -0.118883318320E+03    0.47157E+00   -0.39723E+00  1535   0.693E+00    0.242E+00
RMM:   9    -0.118867907383E+03    0.15411E-01   -0.56401E-01  1595   0.318E+00    0.117E+00
RMM:  10    -0.118848044063E+03    0.19863E-01   -0.34861E-01  1621   0.184E+00    0.502E-01
RMM:  11    -0.118852560806E+03   -0.45167E-02   -0.63908E-02  1725   0.644E-01    0.347E-01
RMM:  12    -0.118850271159E+03    0.22896E-02   -0.22638E-02  1594   0.497E-01    0.957E-02
RMM:  13    -0.118850467106E+03   -0.19595E-03   -0.25522E-03  1635   0.166E-01    0.183E-02
RMM:  14    -0.118850545500E+03   -0.78394E-04   -0.73755E-04  1776   0.717E-02    0.177E-02
RMM:  15    -0.118850554087E+03   -0.85872E-05   -0.10312E-04  1837   0.287E-02    0.142E-02
RMM:  16    -0.118850553532E+03    0.55565E-06   -0.20295E-05  1647   0.139E-02    0.288E-03
RMM:  17    -0.118850553624E+03   -0.92248E-07   -0.71902E-06  1404   0.788E-03
   1 F= -.12360580E+03 E0= -.12360580E+03  d E =-.157209E-15
