  22  22   0   0
  0.1299213E+02  0.1194528E-08  0.1073881E-08  0.6216934E-09  0.5000000E-15
  1.000000000000000E-004
  CAR 
 unknown system                          
     10.21029178    -22.26576832  301      1.13052665      1.00000000
    -22.266  0.0000E+00  0.0000E+00
    -22.158  0.0000E+00  0.0000E+00
    -22.049  0.0000E+00  0.0000E+00
    -21.941  0.0000E+00  0.0000E+00
    -21.833  0.0000E+00  0.0000E+00
    -21.725  0.0000E+00  0.0000E+00
    -21.616  0.0000E+00  0.0000E+00
    -21.508  0.0000E+00  0.0000E+00
    -21.400  0.0000E+00  0.0000E+00
    -21.291  0.0000E+00  0.0000E+00
    -21.183  0.0000E+00  0.0000E+00
    -21.075  0.7326E-16  0.7930E-17
    -20.967  0.6709E-07  0.7263E-08
    -20.858  0.1131E-01  0.1225E-02
    -20.750  0.2216E+01  0.2411E+00
    -20.642  0.1565E+02  0.1935E+01
    -20.534  0.3046E+02  0.5233E+01
    -20.425  0.3166E+02  0.8661E+01
    -20.317  0.3817E+02  0.1279E+02
    -20.209  0.2913E+02  0.1595E+02
    -20.101  0.4904E+00  0.1600E+02
    -19.992  0.3520E-05  0.1600E+02
    -19.884  0.3590E-14  0.1600E+02
    -19.776  0.0000E+00  0.1600E+02
    -19.668  0.0000E+00  0.1600E+02
    -19.559  0.0000E+00  0.1600E+02
    -19.451  0.0000E+00  0.1600E+02
    -19.343  0.0000E+00  0.1600E+02
    -19.235  0.0000E+00  0.1600E+02
    -19.126  0.0000E+00  0.1600E+02
    -19.018  0.0000E+00  0.1600E+02
    -18.910  0.0000E+00  0.1600E+02
    -18.802  0.0000E+00  0.1600E+02
    -18.693  0.0000E+00  0.1600E+02
    -18.585  0.0000E+00  0.1600E+02
    -18.477  0.0000E+00  0.1600E+02
    -18.369  0.0000E+00  0.1600E+02
    -18.260  0.0000E+00  0.1600E+02
    -18.152  0.0000E+00  0.1600E+02
    -18.044  0.0000E+00  0.1600E+02
    -17.936  0.0000E+00  0.1600E+02
    -17.827  0.0000E+00  0.1600E+02
    -17.719  0.1547E-08  0.1600E+02
    -17.611  0.3570E-02  0.1600E+02
    -17.503  0.2580E+01  0.1628E+02
    -17.394  0.1113E+02  0.1748E+02
    -17.286  0.2051E+02  0.1971E+02
    -17.178  0.1725E+02  0.2157E+02
    -17.070  0.1600E+02  0.2331E+02
    -16.961  0.6372E+01  0.2399E+02
    -16.853  0.4632E-01  0.2400E+02
    -16.745  0.1585E-06  0.2400E+02
    -16.637  0.6586E-04  0.2400E+02
    -16.528  0.1233E+01  0.2413E+02
    -16.420  0.2767E+02  0.2713E+02
    -16.312  0.8039E+01  0.2800E+02
    -16.204  0.1161E-01  0.2800E+02
    -16.095  0.1371E-07  0.2800E+02
    -15.987  0.0000E+00  0.2800E+02
    -15.879  0.0000E+00  0.2800E+02
    -15.771  0.0000E+00  0.2800E+02
    -15.662  0.0000E+00  0.2800E+02
    -15.554  0.0000E+00  0.2800E+02
    -15.446  0.0000E+00  0.2800E+02
    -15.338  0.0000E+00  0.2800E+02
    -15.229  0.0000E+00  0.2800E+02
    -15.121  0.0000E+00  0.2800E+02
    -15.013  0.0000E+00  0.2800E+02
    -14.905  0.0000E+00  0.2800E+02
    -14.796  0.0000E+00  0.2800E+02
    -14.688  0.0000E+00  0.2800E+02
    -14.580  0.0000E+00  0.2800E+02
    -14.472  0.0000E+00  0.2800E+02
    -14.363  0.0000E+00  0.2800E+02
    -14.255  0.0000E+00  0.2800E+02
    -14.147  0.0000E+00  0.2800E+02
    -14.038  0.0000E+00  0.2800E+02
    -13.930  0.0000E+00  0.2800E+02
    -13.822  0.0000E+00  0.2800E+02
    -13.714  0.0000E+00  0.2800E+02
    -13.605  0.0000E+00  0.2800E+02
    -13.497  0.0000E+00  0.2800E+02
    -13.389  0.0000E+00  0.2800E+02
    -13.281  0.0000E+00  0.2800E+02
    -13.172  0.0000E+00  0.2800E+02
    -13.064  0.0000E+00  0.2800E+02
    -12.956  0.0000E+00  0.2800E+02
    -12.848  0.0000E+00  0.2800E+02
    -12.739  0.0000E+00  0.2800E+02
    -12.631  0.0000E+00  0.2800E+02
    -12.523  0.0000E+00  0.2800E+02
    -12.415  0.0000E+00  0.2800E+02
    -12.306  0.0000E+00  0.2800E+02
    -12.198  0.0000E+00  0.2800E+02
    -12.090  0.0000E+00  0.2800E+02
    -11.982  0.0000E+00  0.2800E+02
    -11.873  0.0000E+00  0.2800E+02
    -11.765  0.0000E+00  0.2800E+02
    -11.657  0.0000E+00  0.2800E+02
    -11.549  0.0000E+00  0.2800E+02
    -11.440  0.0000E+00  0.2800E+02
    -11.332  0.0000E+00  0.2800E+02
    -11.224  0.0000E+00  0.2800E+02
    -11.116  0.0000E+00  0.2800E+02
    -11.007  0.0000E+00  0.2800E+02
    -10.899  0.0000E+00  0.2800E+02
    -10.791  0.0000E+00  0.2800E+02
    -10.683  0.0000E+00  0.2800E+02
    -10.574  0.0000E+00  0.2800E+02
    -10.466  0.0000E+00  0.2800E+02
    -10.358  0.0000E+00  0.2800E+02
    -10.250  0.0000E+00  0.2800E+02
    -10.141  0.0000E+00  0.2800E+02
    -10.033  0.0000E+00  0.2800E+02
     -9.925  0.0000E+00  0.2800E+02
     -9.817  0.2539E-08  0.2800E+02
     -9.708  0.2248E-02  0.2800E+02
     -9.600  0.1043E+01  0.2811E+02
     -9.492  0.7575E+01  0.2893E+02
     -9.384  0.9540E+01  0.2997E+02
     -9.275  0.9940E+01  0.3104E+02
     -9.167  0.6775E+01  0.3178E+02
     -9.059  0.2031E+01  0.3200E+02
     -8.951  0.4406E-01  0.3200E+02
     -8.842  0.8914E-06  0.3200E+02
     -8.734  0.2588E-14  0.3200E+02
     -8.626  0.3334E-08  0.3200E+02
     -8.518  0.2156E-02  0.3200E+02
     -8.409  0.4659E+00  0.3205E+02
     -8.301  0.3191E+01  0.3240E+02
     -8.193  0.5636E+01  0.3301E+02
     -8.085  0.6304E+01  0.3369E+02
     -7.976  0.1032E+02  0.3481E+02
     -7.868  0.9159E+01  0.3580E+02
     -7.760  0.1862E+01  0.3600E+02
     -7.652  0.1101E-01  0.3600E+02
     -7.543  0.5217E-07  0.3600E+02
     -7.435  0.0000E+00  0.3600E+02
     -7.327  0.0000E+00  0.3600E+02
     -7.219  0.0000E+00  0.3600E+02
     -7.110  0.0000E+00  0.3600E+02
     -7.002  0.0000E+00  0.3600E+02
     -6.894  0.0000E+00  0.3600E+02
     -6.786  0.0000E+00  0.3600E+02
     -6.677  0.0000E+00  0.3600E+02
     -6.569  0.0000E+00  0.3600E+02
     -6.461  0.0000E+00  0.3600E+02
     -6.352  0.0000E+00  0.3600E+02
     -6.244  0.0000E+00  0.3600E+02
     -6.136  0.0000E+00  0.3600E+02
     -6.028  0.0000E+00  0.3600E+02
     -5.919  0.0000E+00  0.3600E+02
     -5.811  0.0000E+00  0.3600E+02
     -5.703  0.0000E+00  0.3600E+02
     -5.595  0.0000E+00  0.3600E+02
     -5.486  0.2552E-10  0.3600E+02
     -5.378  0.1158E-03  0.3600E+02
     -5.270  0.1347E+00  0.3601E+02
     -5.162  0.5525E+01  0.3661E+02
     -5.053  0.1338E+02  0.3806E+02
     -4.945  0.1271E+02  0.3944E+02
     -4.837  0.1367E+02  0.4092E+02
     -4.729  0.1422E+02  0.4246E+02
     -4.620  0.1094E+02  0.4364E+02
     -4.512  0.2732E+01  0.4394E+02
     -4.404  0.3657E+00  0.4398E+02
     -4.296  0.7781E-01  0.4398E+02
     -4.187  0.1461E+00  0.4400E+02
     -4.079  0.2147E+01  0.4423E+02
     -3.971  0.1759E+02  0.4614E+02
     -3.863  0.1572E+02  0.4784E+02
     -3.754  0.1347E+02  0.4930E+02
     -3.646  0.1525E+02  0.5095E+02
     -3.538  0.8624E+01  0.5188E+02
     -3.430  0.6146E+01  0.5255E+02
     -3.321  0.1056E+02  0.5369E+02
     -3.213  0.6831E+01  0.5443E+02
     -3.105  0.7685E+01  0.5526E+02
     -2.997  0.5950E+01  0.5591E+02
     -2.888  0.3717E+01  0.5631E+02
     -2.780  0.4770E+01  0.5683E+02
     -2.672  0.8740E+01  0.5777E+02
     -2.564  0.8767E+01  0.5872E+02
     -2.455  0.1111E+02  0.5992E+02
     -2.347  0.1142E+02  0.6116E+02
     -2.239  0.1281E+02  0.6255E+02
     -2.131  0.9052E+01  0.6353E+02
     -2.022  0.1326E+02  0.6496E+02
     -1.914  0.1319E+02  0.6639E+02
     -1.806  0.1361E+02  0.6786E+02
     -1.698  0.1781E+02  0.6979E+02
     -1.589  0.2211E+02  0.7218E+02
     -1.481  0.2239E+02  0.7461E+02
     -1.373  0.2541E+02  0.7736E+02
     -1.265  0.2227E+02  0.7977E+02
     -1.156  0.2258E+02  0.8221E+02
     -1.048  0.1727E+02  0.8408E+02
     -0.940  0.2916E+02  0.8724E+02
     -0.832  0.3904E+02  0.9147E+02
     -0.723  0.3007E+02  0.9472E+02
     -0.615  0.1164E+02  0.9598E+02
     -0.507  0.4330E+01  0.9645E+02
     -0.399  0.2351E+02  0.9899E+02
     -0.290  0.2090E+02  0.1013E+03
     -0.182  0.2416E+02  0.1039E+03
     -0.074  0.2153E+02  0.1062E+03
      0.034  0.1519E+02  0.1078E+03
      0.143  0.2377E+01  0.1081E+03
      0.251  0.5711E+01  0.1087E+03
      0.359  0.2057E+02  0.1109E+03
      0.467  0.1641E+02  0.1127E+03
      0.576  0.1504E+02  0.1144E+03
      0.684  0.1920E+02  0.1164E+03
      0.792  0.2197E+02  0.1188E+03
      0.900  0.1030E+02  0.1199E+03
      1.009  0.6885E+00  0.1200E+03
      1.117  0.1430E-03  0.1200E+03
      1.225  0.7025E-11  0.1200E+03
      1.334  0.0000E+00  0.1200E+03
      1.442  0.0000E+00  0.1200E+03
      1.550  0.0000E+00  0.1200E+03
      1.658  0.0000E+00  0.1200E+03
      1.767  0.0000E+00  0.1200E+03
      1.875  0.0000E+00  0.1200E+03
      1.983  0.0000E+00  0.1200E+03
      2.091  0.0000E+00  0.1200E+03
      2.200  0.0000E+00  0.1200E+03
      2.308  0.0000E+00  0.1200E+03
      2.416  0.0000E+00  0.1200E+03
      2.524  0.0000E+00  0.1200E+03
      2.633  0.0000E+00  0.1200E+03
      2.741  0.0000E+00  0.1200E+03
      2.849  0.0000E+00  0.1200E+03
      2.957  0.0000E+00  0.1200E+03
      3.066  0.0000E+00  0.1200E+03
      3.174  0.0000E+00  0.1200E+03
      3.282  0.0000E+00  0.1200E+03
      3.390  0.0000E+00  0.1200E+03
      3.499  0.0000E+00  0.1200E+03
      3.607  0.0000E+00  0.1200E+03
      3.715  0.0000E+00  0.1200E+03
      3.823  0.0000E+00  0.1200E+03
      3.932  0.0000E+00  0.1200E+03
      4.040  0.0000E+00  0.1200E+03
      4.148  0.0000E+00  0.1200E+03
      4.256  0.0000E+00  0.1200E+03
      4.365  0.0000E+00  0.1200E+03
      4.473  0.0000E+00  0.1200E+03
      4.581  0.0000E+00  0.1200E+03
      4.689  0.0000E+00  0.1200E+03
      4.798  0.0000E+00  0.1200E+03
      4.906  0.0000E+00  0.1200E+03
      5.014  0.0000E+00  0.1200E+03
      5.122  0.0000E+00  0.1200E+03
      5.231  0.1973E-10  0.1200E+03
      5.339  0.1716E-03  0.1200E+03
      5.447  0.4098E+00  0.1200E+03
      5.555  0.4841E+01  0.1206E+03
      5.664  0.6798E+01  0.1213E+03
      5.772  0.9043E+01  0.1223E+03
      5.880  0.1128E+02  0.1235E+03
      5.988  0.1148E+02  0.1247E+03
      6.097  0.1169E+02  0.1260E+03
      6.205  0.1358E+02  0.1275E+03
      6.313  0.6672E+01  0.1282E+03
      6.421  0.5634E+01  0.1288E+03
      6.530  0.6991E+01  0.1296E+03
      6.638  0.8974E+01  0.1305E+03
      6.746  0.8794E+01  0.1315E+03
      6.854  0.6454E+01  0.1322E+03
      6.963  0.1344E+02  0.1336E+03
      7.071  0.1004E+02  0.1347E+03
      7.179  0.6798E+01  0.1355E+03
      7.287  0.1141E+02  0.1367E+03
      7.396  0.7722E+01  0.1375E+03
      7.504  0.4935E+01  0.1381E+03
      7.612  0.7575E+01  0.1389E+03
      7.720  0.7436E+01  0.1397E+03
      7.829  0.2223E+01  0.1399E+03
      7.937  0.5327E+00  0.1400E+03
      8.045  0.3354E+00  0.1400E+03
      8.153  0.7807E+00  0.1401E+03
      8.262  0.3930E+01  0.1405E+03
      8.370  0.5291E+01  0.1411E+03
      8.478  0.5940E+01  0.1418E+03
      8.586  0.1314E+02  0.1432E+03
      8.695  0.6582E+01  0.1439E+03
      8.803  0.9326E+00  0.1440E+03
      8.911  0.1432E-01  0.1440E+03
      9.020  0.1266E-06  0.1440E+03
      9.128  0.1465E-15  0.1440E+03
      9.236  0.0000E+00  0.1440E+03
      9.344  0.0000E+00  0.1440E+03
      9.453  0.0000E+00  0.1440E+03
      9.561  0.0000E+00  0.1440E+03
      9.669  0.0000E+00  0.1440E+03
      9.777  0.0000E+00  0.1440E+03
      9.886  0.0000E+00  0.1440E+03
      9.994  0.0000E+00  0.1440E+03
     10.102  0.0000E+00  0.1440E+03
     10.210  0.0000E+00  0.1440E+03
