Automatically generated mesh
      43
Reciprocal lattice
    0.00000000000000    0.00000000000000    0.00000000000000             1
    0.33333333333334    0.00000000000000    0.00000000000000             2
   -0.00000000000000    0.25000000000000   -0.00000000000000             2
    0.33333333333334    0.25000000000000    0.00000000000000             2
   -0.33333333333334    0.25000000000000    0.00000000000000             2
   -0.00000000000000    0.50000000000000   -0.00000000000000             1
    0.33333333333334    0.50000000000000    0.00000000000000             2
    0.00000000000000    0.00000000000000    0.14285714285715             2
    0.33333333333334   -0.00000000000000    0.14285714285715             2
   -0.33333333333334   -0.00000000000000    0.14285714285715             2
    0.00000000000000    0.25000000000000    0.14285714285715             2
    0.33333333333334    0.25000000000000    0.14285714285715             2
   -0.33333333333334    0.25000000000000    0.14285714285715             2
    0.00000000000000    0.50000000000000    0.14285714285715             2
    0.33333333333334    0.50000000000000    0.14285714285715             2
   -0.33333333333334    0.50000000000000    0.14285714285715             2
    0.00000000000000   -0.25000000000000    0.14285714285715             2
    0.33333333333334   -0.25000000000000    0.14285714285715             2
   -0.33333333333334   -0.25000000000000    0.14285714285715             2
    0.00000000000000    0.00000000000000    0.28571428571428             2
    0.33333333333334    0.00000000000000    0.28571428571428             2
   -0.33333333333334    0.00000000000000    0.28571428571428             2
    0.00000000000000    0.25000000000000    0.28571428571428             2
    0.33333333333334    0.25000000000000    0.28571428571428             2
   -0.33333333333334    0.25000000000000    0.28571428571428             2
   -0.00000000000000    0.50000000000000    0.28571428571428             2
    0.33333333333334    0.50000000000000    0.28571428571428             2
   -0.33333333333334    0.50000000000000    0.28571428571428             2
    0.00000000000000   -0.25000000000000    0.28571428571428             2
    0.33333333333334   -0.25000000000000    0.28571428571428             2
   -0.33333333333334   -0.25000000000000    0.28571428571428             2
    0.00000000000000    0.00000000000000    0.42857142857143             2
    0.33333333333334    0.00000000000000    0.42857142857143             2
   -0.33333333333334    0.00000000000000    0.42857142857143             2
    0.00000000000000    0.25000000000000    0.42857142857143             2
    0.33333333333334    0.25000000000000    0.42857142857143             2
   -0.33333333333334    0.25000000000000    0.42857142857143             2
   -0.00000000000000    0.50000000000000    0.42857142857143             2
    0.33333333333334    0.50000000000000    0.42857142857143             2
   -0.33333333333334    0.50000000000000    0.42857142857143             2
    0.00000000000000   -0.25000000000000    0.42857142857143             2
    0.33333333333334   -0.25000000000000    0.42857142857143             2
   -0.33333333333334   -0.25000000000000    0.42857142857143             2
