       N       E                     dE             d eps       ncg     rms          rms(c)
DAV:   1     0.953942932548E+03    0.95394E+03   -0.68717E+04  6200   0.173E+03
DAV:   2    -0.458500537589E+02   -0.99979E+03   -0.98063E+03  7704   0.366E+02
DAV:   3    -0.120875407771E+03   -0.75025E+02   -0.74293E+02  6888   0.107E+02
DAV:   4    -0.122243031817E+03   -0.13676E+01   -0.13602E+01  7248   0.150E+01
DAV:   5    -0.122265940289E+03   -0.22908E-01   -0.22901E-01  6976   0.196E+00    0.515E+01
RMM:   6    -0.104283142132E+03    0.17983E+02   -0.66027E+01  6192   0.283E+01    0.248E+01
RMM:   7    -0.104298021176E+03   -0.14879E-01   -0.60002E+00  6700   0.756E+00    0.175E+01
RMM:   8    -0.104269462520E+03    0.28559E-01   -0.12791E+00  6827   0.470E+00    0.435E+00
RMM:   9    -0.104274001677E+03   -0.45392E-02   -0.22350E-01  7385   0.149E+00    0.365E+00
RMM:  10    -0.104270311042E+03    0.36906E-02   -0.51378E-02  7007   0.772E-01    0.476E-01
RMM:  11    -0.104269165818E+03    0.11452E-02   -0.10709E-02  7284   0.334E-01    0.763E-01
RMM:  12    -0.104269330533E+03   -0.16471E-03   -0.33035E-03  7231   0.187E-01    0.865E-02
RMM:  13    -0.104269349924E+03   -0.19392E-04   -0.10857E-03  7314   0.986E-02    0.167E-01
RMM:  14    -0.104269319992E+03    0.29933E-04   -0.23649E-04  7393   0.477E-02    0.339E-02
RMM:  15    -0.104269324109E+03   -0.41172E-05   -0.57272E-05  7563   0.231E-02    0.138E-02
RMM:  16    -0.104269324010E+03    0.98787E-07   -0.75706E-06  6123   0.868E-03
   1 F= -.10683839E+03 E0= -.10683839E+03  d E =-.128244E-13
