  20  20   1   0
  0.1748851E+02  0.7908594E-09  0.7908594E-09  0.7908594E-09  0.5000000E-15
  1.000000000000000E-004
  CAR 
 unknown system                          
     11.37150536    -15.30342137  301      4.18038969      1.00000000
    -15.303  0.0000E+00  0.0000E+00
    -15.215  0.0000E+00  0.0000E+00
    -15.126  0.0000E+00  0.0000E+00
    -15.037  0.0000E+00  0.0000E+00
    -14.948  0.0000E+00  0.0000E+00
    -14.859  0.0000E+00  0.0000E+00
    -14.770  0.0000E+00  0.0000E+00
    -14.681  0.0000E+00  0.0000E+00
    -14.592  0.0000E+00  0.0000E+00
    -14.503  0.0000E+00  0.0000E+00
    -14.414  0.0000E+00  0.0000E+00
    -14.325  0.1860E-10  0.1654E-11
    -14.236  0.2558E-04  0.2275E-05
    -14.148  0.9697E-01  0.8625E-02
    -14.059  0.2369E+01  0.2192E+00
    -13.970  0.2726E+01  0.4616E+00
    -13.881  0.2375E+01  0.6728E+00
    -13.792  0.4611E+01  0.1083E+01
    -13.703  0.4471E+01  0.1480E+01
    -13.614  0.8871E+01  0.2269E+01
    -13.525  0.6507E+01  0.2848E+01
    -13.436  0.5189E+01  0.3309E+01
    -13.347  0.1416E+01  0.3435E+01
    -13.258  0.1298E+01  0.3550E+01
    -13.169  0.8116E+01  0.4272E+01
    -13.081  0.1400E+02  0.5517E+01
    -12.992  0.1018E+02  0.6423E+01
    -12.903  0.9851E+01  0.7298E+01
    -12.814  0.1517E+02  0.8647E+01
    -12.725  0.2653E+02  0.1101E+02
    -12.636  0.2085E+02  0.1286E+02
    -12.547  0.1691E+02  0.1436E+02
    -12.458  0.1780E+02  0.1595E+02
    -12.369  0.1750E+02  0.1750E+02
    -12.280  0.1701E+02  0.1901E+02
    -12.191  0.1645E+02  0.2048E+02
    -12.102  0.2367E+02  0.2258E+02
    -12.014  0.8890E+01  0.2337E+02
    -11.925  0.6649E+01  0.2396E+02
    -11.836  0.4146E+00  0.2400E+02
    -11.747  0.1983E-03  0.2400E+02
    -11.658  0.2751E-09  0.2400E+02
    -11.569  0.0000E+00  0.2400E+02
    -11.480  0.0000E+00  0.2400E+02
    -11.391  0.0000E+00  0.2400E+02
    -11.302  0.0000E+00  0.2400E+02
    -11.213  0.0000E+00  0.2400E+02
    -11.124  0.0000E+00  0.2400E+02
    -11.035  0.0000E+00  0.2400E+02
    -10.947  0.0000E+00  0.2400E+02
    -10.858  0.0000E+00  0.2400E+02
    -10.769  0.0000E+00  0.2400E+02
    -10.680  0.0000E+00  0.2400E+02
    -10.591  0.0000E+00  0.2400E+02
    -10.502  0.0000E+00  0.2400E+02
    -10.413  0.0000E+00  0.2400E+02
    -10.324  0.0000E+00  0.2400E+02
    -10.235  0.0000E+00  0.2400E+02
    -10.146  0.0000E+00  0.2400E+02
    -10.057  0.0000E+00  0.2400E+02
     -9.968  0.0000E+00  0.2400E+02
     -9.880  0.0000E+00  0.2400E+02
     -9.791  0.0000E+00  0.2400E+02
     -9.702  0.0000E+00  0.2400E+02
     -9.613  0.0000E+00  0.2400E+02
     -9.524  0.0000E+00  0.2400E+02
     -9.435  0.0000E+00  0.2400E+02
     -9.346  0.0000E+00  0.2400E+02
     -9.257  0.0000E+00  0.2400E+02
     -9.168  0.0000E+00  0.2400E+02
     -9.079  0.0000E+00  0.2400E+02
     -8.990  0.0000E+00  0.2400E+02
     -8.901  0.0000E+00  0.2400E+02
     -8.813  0.0000E+00  0.2400E+02
     -8.724  0.0000E+00  0.2400E+02
     -8.635  0.0000E+00  0.2400E+02
     -8.546  0.0000E+00  0.2400E+02
     -8.457  0.0000E+00  0.2400E+02
     -8.368  0.0000E+00  0.2400E+02
     -8.279  0.0000E+00  0.2400E+02
     -8.190  0.0000E+00  0.2400E+02
     -8.101  0.0000E+00  0.2400E+02
     -8.012  0.0000E+00  0.2400E+02
     -7.923  0.0000E+00  0.2400E+02
     -7.834  0.0000E+00  0.2400E+02
     -7.746  0.0000E+00  0.2400E+02
     -7.657  0.0000E+00  0.2400E+02
     -7.568  0.0000E+00  0.2400E+02
     -7.479  0.0000E+00  0.2400E+02
     -7.390  0.0000E+00  0.2400E+02
     -7.301  0.0000E+00  0.2400E+02
     -7.212  0.0000E+00  0.2400E+02
     -7.123  0.0000E+00  0.2400E+02
     -7.034  0.0000E+00  0.2400E+02
     -6.945  0.0000E+00  0.2400E+02
     -6.856  0.0000E+00  0.2400E+02
     -6.767  0.0000E+00  0.2400E+02
     -6.679  0.0000E+00  0.2400E+02
     -6.590  0.0000E+00  0.2400E+02
     -6.501  0.0000E+00  0.2400E+02
     -6.412  0.0000E+00  0.2400E+02
     -6.323  0.0000E+00  0.2400E+02
     -6.234  0.4755E-10  0.2400E+02
     -6.145  0.4905E-04  0.2400E+02
     -6.056  0.1421E+00  0.2401E+02
     -5.967  0.2892E+01  0.2427E+02
     -5.878  0.4293E+01  0.2465E+02
     -5.789  0.5359E+01  0.2513E+02
     -5.700  0.1112E+02  0.2612E+02
     -5.612  0.1268E+02  0.2724E+02
     -5.523  0.1107E+02  0.2823E+02
     -5.434  0.7575E+01  0.2890E+02
     -5.345  0.9636E+01  0.2976E+02
     -5.256  0.1057E+02  0.3070E+02
     -5.167  0.1079E+02  0.3166E+02
     -5.078  0.1039E+02  0.3258E+02
     -4.989  0.1579E+02  0.3399E+02
     -4.900  0.1113E+02  0.3497E+02
     -4.811  0.9550E+01  0.3582E+02
     -4.722  0.2708E+01  0.3606E+02
     -4.633  0.1424E+01  0.3619E+02
     -4.545  0.8605E+00  0.3627E+02
     -4.456  0.7108E+00  0.3633E+02
     -4.367  0.6513E+00  0.3639E+02
     -4.278  0.6275E+00  0.3644E+02
     -4.189  0.6315E+00  0.3650E+02
     -4.100  0.6891E+00  0.3656E+02
     -4.011  0.1577E+01  0.3670E+02
     -3.922  0.2135E+01  0.3689E+02
     -3.833  0.1351E+01  0.3701E+02
     -3.744  0.1201E+01  0.3712E+02
     -3.655  0.1187E+01  0.3722E+02
     -3.566  0.1468E+01  0.3736E+02
     -3.478  0.2477E+01  0.3758E+02
     -3.389  0.3418E+01  0.3788E+02
     -3.300  0.5226E+01  0.3834E+02
     -3.211  0.2825E+01  0.3860E+02
     -3.122  0.3156E+01  0.3888E+02
     -3.033  0.5348E+01  0.3935E+02
     -2.944  0.5733E+01  0.3986E+02
     -2.855  0.1550E+01  0.4000E+02
     -2.766  0.1108E-01  0.4000E+02
     -2.677  0.3376E-06  0.4000E+02
     -2.588  0.2473E-13  0.4000E+02
     -2.499  0.0000E+00  0.4000E+02
     -2.411  0.0000E+00  0.4000E+02
     -2.322  0.0000E+00  0.4000E+02
     -2.233  0.0000E+00  0.4000E+02
     -2.144  0.0000E+00  0.4000E+02
     -2.055  0.0000E+00  0.4000E+02
     -1.966  0.0000E+00  0.4000E+02
     -1.877  0.0000E+00  0.4000E+02
     -1.788  0.0000E+00  0.4000E+02
     -1.699  0.0000E+00  0.4000E+02
     -1.610  0.0000E+00  0.4000E+02
     -1.521  0.0000E+00  0.4000E+02
     -1.432  0.0000E+00  0.4000E+02
     -1.344  0.0000E+00  0.4000E+02
     -1.255  0.0000E+00  0.4000E+02
     -1.166  0.0000E+00  0.4000E+02
     -1.077  0.0000E+00  0.4000E+02
     -0.988  0.0000E+00  0.4000E+02
     -0.899  0.0000E+00  0.4000E+02
     -0.810  0.0000E+00  0.4000E+02
     -0.721  0.3221E-08  0.4000E+02
     -0.632  0.8764E-03  0.4000E+02
     -0.543  0.7038E+00  0.4006E+02
     -0.454  0.8476E+01  0.4082E+02
     -0.365  0.2946E+02  0.4344E+02
     -0.277  0.1735E+02  0.4498E+02
     -0.188  0.3013E+01  0.4525E+02
     -0.099  0.3794E+01  0.4558E+02
     -0.010  0.6542E+01  0.4616E+02
      0.079  0.1794E+02  0.4776E+02
      0.168  0.1262E+02  0.4888E+02
      0.257  0.1013E+02  0.4978E+02
      0.346  0.2461E+02  0.5197E+02
      0.435  0.2024E+02  0.5377E+02
      0.524  0.8224E+01  0.5450E+02
      0.613  0.9929E+01  0.5538E+02
      0.702  0.1348E+02  0.5658E+02
      0.790  0.1632E+02  0.5803E+02
      0.879  0.1865E+02  0.5969E+02
      0.968  0.1568E+02  0.6109E+02
      1.057  0.9036E+01  0.6189E+02
      1.146  0.7292E+01  0.6254E+02
      1.235  0.7504E+01  0.6321E+02
      1.324  0.9001E+01  0.6401E+02
      1.413  0.1647E+02  0.6547E+02
      1.502  0.1686E+02  0.6697E+02
      1.591  0.9974E+01  0.6786E+02
      1.680  0.1550E+02  0.6924E+02
      1.769  0.1048E+02  0.7017E+02
      1.857  0.1013E+02  0.7107E+02
      1.946  0.1046E+02  0.7200E+02
      2.035  0.8705E+01  0.7277E+02
      2.124  0.9467E+01  0.7361E+02
      2.213  0.1405E+02  0.7486E+02
      2.302  0.1990E+02  0.7663E+02
      2.391  0.1432E+02  0.7791E+02
      2.480  0.1011E+02  0.7881E+02
      2.569  0.1415E+02  0.8006E+02
      2.658  0.1459E+02  0.8136E+02
      2.747  0.2238E+02  0.8335E+02
      2.836  0.2645E+02  0.8570E+02
      2.924  0.2115E+02  0.8758E+02
      3.013  0.1068E+02  0.8853E+02
      3.102  0.1374E+02  0.8975E+02
      3.191  0.2723E+02  0.9217E+02
      3.280  0.3051E+02  0.9489E+02
      3.369  0.2946E+02  0.9751E+02
      3.458  0.2874E+02  0.1001E+03
      3.547  0.2363E+02  0.1022E+03
      3.636  0.3602E+02  0.1054E+03
      3.725  0.2298E+02  0.1074E+03
      3.814  0.1762E+02  0.1090E+03
      3.903  0.2133E+02  0.1109E+03
      3.991  0.1217E+02  0.1120E+03
      4.080  0.5074E+00  0.1120E+03
      4.169  0.2057E-03  0.1120E+03
      4.258  0.2778E-09  0.1120E+03
      4.347  0.0000E+00  0.1120E+03
      4.436  0.0000E+00  0.1120E+03
      4.525  0.0000E+00  0.1120E+03
      4.614  0.0000E+00  0.1120E+03
      4.703  0.0000E+00  0.1120E+03
      4.792  0.0000E+00  0.1120E+03
      4.881  0.0000E+00  0.1120E+03
      4.970  0.0000E+00  0.1120E+03
      5.058  0.0000E+00  0.1120E+03
      5.147  0.0000E+00  0.1120E+03
      5.236  0.0000E+00  0.1120E+03
      5.325  0.0000E+00  0.1120E+03
      5.414  0.0000E+00  0.1120E+03
      5.503  0.0000E+00  0.1120E+03
      5.592  0.0000E+00  0.1120E+03
      5.681  0.0000E+00  0.1120E+03
      5.770  0.0000E+00  0.1120E+03
      5.859  0.0000E+00  0.1120E+03
      5.948  0.0000E+00  0.1120E+03
      6.037  0.3938E-09  0.1120E+03
      6.125  0.2308E-03  0.1120E+03
      6.214  0.3904E+00  0.1120E+03
      6.303  0.5101E+01  0.1125E+03
      6.392  0.4183E+01  0.1129E+03
      6.481  0.3769E+01  0.1132E+03
      6.570  0.3388E+01  0.1135E+03
      6.659  0.2520E+01  0.1137E+03
      6.748  0.2368E+01  0.1139E+03
      6.837  0.2504E+01  0.1142E+03
      6.926  0.4728E+01  0.1146E+03
      7.015  0.8503E+01  0.1153E+03
      7.104  0.1212E+02  0.1164E+03
      7.192  0.9561E+01  0.1173E+03
      7.281  0.4501E+01  0.1177E+03
      7.370  0.5149E+01  0.1181E+03
      7.459  0.4362E+01  0.1185E+03
      7.548  0.4747E+01  0.1189E+03
      7.637  0.9557E+01  0.1198E+03
      7.726  0.9267E+01  0.1206E+03
      7.815  0.8664E+01  0.1214E+03
      7.904  0.6129E+01  0.1219E+03
      7.993  0.7604E+01  0.1226E+03
      8.082  0.1023E+02  0.1235E+03
      8.171  0.9829E+01  0.1244E+03
      8.259  0.7186E+01  0.1250E+03
      8.348  0.9530E+01  0.1259E+03
      8.437  0.9805E+01  0.1267E+03
      8.526  0.5992E+01  0.1273E+03
      8.615  0.5132E+01  0.1277E+03
      8.704  0.7004E+01  0.1283E+03
      8.793  0.7418E+01  0.1290E+03
      8.882  0.5522E+01  0.1295E+03
      8.971  0.7040E+01  0.1301E+03
      9.060  0.7082E+01  0.1308E+03
      9.149  0.7154E+01  0.1314E+03
      9.238  0.8136E+01  0.1321E+03
      9.326  0.8581E+01  0.1329E+03
      9.415  0.6728E+01  0.1335E+03
      9.504  0.6468E+01  0.1340E+03
      9.593  0.6425E+01  0.1346E+03
      9.682  0.3413E+01  0.1349E+03
      9.771  0.2126E+01  0.1351E+03
      9.860  0.3120E+01  0.1354E+03
      9.949  0.4229E+01  0.1358E+03
     10.038  0.1679E+01  0.1359E+03
     10.127  0.7621E+00  0.1360E+03
     10.216  0.2043E+00  0.1360E+03
     10.305  0.8519E-02  0.1360E+03
     10.393  0.2792E-05  0.1360E+03
     10.482  0.2402E-11  0.1360E+03
     10.571  0.0000E+00  0.1360E+03
     10.660  0.0000E+00  0.1360E+03
     10.749  0.0000E+00  0.1360E+03
     10.838  0.0000E+00  0.1360E+03
     10.927  0.0000E+00  0.1360E+03
     11.016  0.0000E+00  0.1360E+03
     11.105  0.0000E+00  0.1360E+03
     11.194  0.0000E+00  0.1360E+03
     11.283  0.0000E+00  0.1360E+03
     11.372  0.0000E+00  0.1360E+03
     11.37150536    -15.30342137  301      4.18038969      1.00000000
    -15.303  0.0000E+00  0.0000E+00  0.0000E+00  0.0000E+00  0.0000E+00  0.0000E+00  0.0000E+00  0.0000E+00  0.0000E+00
    -15.215  0.0000E+00  0.0000E+00  0.0000E+00  0.0000E+00  0.0000E+00  0.0000E+00  0.0000E+00  0.0000E+00  0.0000E+00
    -15.126  0.0000E+00  0.0000E+00  0.0000E+00  0.0000E+00  0.0000E+00  0.0000E+00  0.0000E+00  0.0000E+00  0.0000E+00
    -15.037  0.0000E+00  0.0000E+00  0.0000E+00  0.0000E+00  0.0000E+00  0.0000E+00  0.0000E+00  0.0000E+00  0.0000E+00
    -14.948  0.0000E+00  0.0000E+00  0.0000E+00  0.0000E+00  0.0000E+00  0.0000E+00  0.0000E+00  0.0000E+00  0.0000E+00
    -14.859  0.0000E+00  0.0000E+00  0.0000E+00  0.0000E+00  0.0000E+00  0.0000E+00  0.0000E+00  0.0000E+00  0.0000E+00
    -14.770  0.0000E+00  0.0000E+00  0.0000E+00  0.0000E+00  0.0000E+00  0.0000E+00  0.0000E+00  0.0000E+00  0.0000E+00
    -14.681  0.0000E+00  0.0000E+00  0.0000E+00  0.0000E+00  0.0000E+00  0.0000E+00  0.0000E+00  0.0000E+00  0.0000E+00
    -14.592  0.0000E+00  0.0000E+00  0.0000E+00  0.0000E+00  0.0000E+00  0.0000E+00  0.0000E+00  0.0000E+00  0.0000E+00
    -14.503  0.0000E+00  0.0000E+00  0.0000E+00  0.0000E+00  0.0000E+00  0.0000E+00  0.0000E+00  0.0000E+00  0.0000E+00
    -14.414  0.0000E+00  0.0000E+00  0.0000E+00  0.0000E+00  0.0000E+00  0.0000E+00  0.0000E+00  0.0000E+00  0.0000E+00
    -14.325  0.4607E-12  0.1058E-13  0.2602E-13  0.1367E-13  0.3282E-15  0.4026E-15  0.4080E-15  0.5059E-15  0.2836E-15
    -14.236  0.6333E-06  0.1460E-07  0.3584E-07  0.1885E-07  0.4513E-09  0.5539E-09  0.5619E-09  0.6956E-09  0.3905E-09
    -14.148  0.2397E-02  0.5591E-04  0.1364E-03  0.7200E-04  0.1708E-05  0.2100E-05  0.2136E-05  0.2634E-05  0.1484E-05
    -14.059  0.5824E-01  0.1413E-02  0.3375E-02  0.1805E-02  0.4154E-04  0.5138E-04  0.5274E-04  0.6415E-04  0.3658E-04
    -13.970  0.6551E-01  0.1856E-02  0.4108E-02  0.2306E-02  0.4709E-04  0.5946E-04  0.6316E-04  0.7275E-04  0.4361E-04
    -13.881  0.5392E-01  0.2037E-02  0.4115E-02  0.2452E-02  0.3976E-04  0.5040E-04  0.5384E-04  0.5834E-04  0.3713E-04
    -13.792  0.1006E+00  0.4403E-02  0.8763E-02  0.5275E-02  0.7620E-04  0.9326E-04  0.9363E-04  0.1035E-03  0.6477E-04
    -13.703  0.9245E-01  0.5042E-02  0.9031E-02  0.5840E-02  0.7802E-04  0.9816E-04  0.1071E-03  0.1071E-03  0.7645E-04
    -13.614  0.1743E+00  0.1169E-01  0.1821E-01  0.1300E-01  0.1662E-03  0.2189E-03  0.2731E-03  0.2376E-03  0.2052E-03
    -13.525  0.1222E+00  0.9699E-02  0.1300E-01  0.1036E-01  0.1459E-03  0.2259E-03  0.3322E-03  0.2458E-03  0.2388E-03
    -13.436  0.9225E-01  0.8787E-02  0.9397E-02  0.8909E-02  0.1812E-03  0.3143E-03  0.5135E-03  0.3359E-03  0.3670E-03
    -13.347  0.2388E-01  0.2496E-02  0.2788E-02  0.2554E-02  0.5029E-04  0.8331E-04  0.1329E-03  0.8827E-04  0.9667E-04
    -13.258  0.1972E-01  0.2513E-02  0.2595E-02  0.2529E-02  0.7668E-04  0.1118E-03  0.1714E-03  0.1156E-03  0.1355E-03
    -13.169  0.1045E+00  0.1820E-01  0.1386E-01  0.1733E-01  0.1124E-02  0.1431E-02  0.2114E-02  0.1485E-02  0.1866E-02
    -13.081  0.1688E+00  0.3146E-01  0.2622E-01  0.3041E-01  0.2156E-02  0.2538E-02  0.3659E-02  0.2671E-02  0.3458E-02
    -12.992  0.1111E+00  0.2383E-01  0.2057E-01  0.2318E-01  0.1660E-02  0.1799E-02  0.2540E-02  0.1886E-02  0.2600E-02
    -12.903  0.9946E-01  0.2325E-01  0.2051E-01  0.2270E-01  0.1647E-02  0.1749E-02  0.2448E-02  0.1828E-02  0.2553E-02
    -12.814  0.1777E+00  0.2420E-01  0.2768E-01  0.2490E-01  0.3055E-02  0.3269E-02  0.4608E-02  0.3435E-02  0.4779E-02
    -12.725  0.2424E+00  0.5370E-01  0.5276E-01  0.5351E-01  0.5834E-02  0.6151E-02  0.8960E-02  0.6496E-02  0.9545E-02
    -12.636  0.1352E+00  0.5235E-01  0.4440E-01  0.5076E-01  0.4561E-02  0.5061E-02  0.7451E-02  0.5367E-02  0.7558E-02
    -12.547  0.8962E-01  0.4402E-01  0.3450E-01  0.4212E-01  0.4032E-02  0.4477E-02  0.6523E-02  0.4720E-02  0.6584E-02
    -12.458  0.8580E-01  0.4400E-01  0.3444E-01  0.4209E-01  0.4653E-02  0.5217E-02  0.7451E-02  0.5416E-02  0.7386E-02
    -12.369  0.5829E-01  0.4461E-01  0.3325E-01  0.4233E-01  0.5072E-02  0.5609E-02  0.7923E-02  0.5800E-02  0.7936E-02
    -12.280  0.2756E-01  0.4641E-01  0.3130E-01  0.4339E-01  0.5493E-02  0.5996E-02  0.8527E-02  0.6143E-02  0.8683E-02
    -12.191  0.1640E-01  0.4042E-01  0.2896E-01  0.3813E-01  0.5854E-02  0.6281E-02  0.9026E-02  0.6550E-02  0.9396E-02
    -12.102  0.1181E-01  0.5305E-01  0.4069E-01  0.5058E-01  0.9107E-02  0.9904E-02  0.1456E-01  0.1057E-01  0.1507E-01
    -12.014  0.9411E-03  0.1745E-01  0.1219E-01  0.1640E-01  0.4130E-02  0.4340E-02  0.6346E-02  0.4616E-02  0.6791E-02
    -11.925  0.1282E-03  0.1132E-01  0.7035E-02  0.1047E-01  0.3506E-02  0.3588E-02  0.5154E-02  0.3769E-02  0.5643E-02
    -11.836  0.2665E-05  0.6863E-03  0.4176E-03  0.6326E-03  0.2229E-03  0.2277E-03  0.3261E-03  0.2389E-03  0.3575E-03
    -11.747  0.6204E-09  0.3256E-06  0.1970E-06  0.2999E-06  0.1071E-06  0.1094E-06  0.1566E-06  0.1148E-06  0.1716E-06
    -11.658  0.5358E-15  0.4503E-12  0.2720E-12  0.4147E-12  0.1489E-12  0.1521E-12  0.2176E-12  0.1596E-12  0.2384E-12
    -11.569  0.0000E+00  0.0000E+00  0.0000E+00  0.0000E+00  0.0000E+00  0.0000E+00  0.0000E+00  0.0000E+00  0.0000E+00
    -11.480  0.0000E+00  0.0000E+00  0.0000E+00  0.0000E+00  0.0000E+00  0.0000E+00  0.0000E+00  0.0000E+00  0.0000E+00
    -11.391  0.0000E+00  0.0000E+00  0.0000E+00  0.0000E+00  0.0000E+00  0.0000E+00  0.0000E+00  0.0000E+00  0.0000E+00
    -11.302  0.0000E+00  0.0000E+00  0.0000E+00  0.0000E+00  0.0000E+00  0.0000E+00  0.0000E+00  0.0000E+00  0.0000E+00
    -11.213  0.0000E+00  0.0000E+00  0.0000E+00  0.0000E+00  0.0000E+00  0.0000E+00  0.0000E+00  0.0000E+00  0.0000E+00
    -11.124  0.0000E+00  0.0000E+00  0.0000E+00  0.0000E+00  0.0000E+00  0.0000E+00  0.0000E+00  0.0000E+00  0.0000E+00
    -11.035  0.0000E+00  0.0000E+00  0.0000E+00  0.0000E+00  0.0000E+00  0.0000E+00  0.0000E+00  0.0000E+00  0.0000E+00
    -10.947  0.0000E+00  0.0000E+00  0.0000E+00  0.0000E+00  0.0000E+00  0.0000E+00  0.0000E+00  0.0000E+00  0.0000E+00
    -10.858  0.0000E+00  0.0000E+00  0.0000E+00  0.0000E+00  0.0000E+00  0.0000E+00  0.0000E+00  0.0000E+00  0.0000E+00
    -10.769  0.0000E+00  0.0000E+00  0.0000E+00  0.0000E+00  0.0000E+00  0.0000E+00  0.0000E+00  0.0000E+00  0.0000E+00
    -10.680  0.0000E+00  0.0000E+00  0.0000E+00  0.0000E+00  0.0000E+00  0.0000E+00  0.0000E+00  0.0000E+00  0.0000E+00
    -10.591  0.0000E+00  0.0000E+00  0.0000E+00  0.0000E+00  0.0000E+00  0.0000E+00  0.0000E+00  0.0000E+00  0.0000E+00
    -10.502  0.0000E+00  0.0000E+00  0.0000E+00  0.0000E+00  0.0000E+00  0.0000E+00  0.0000E+00  0.0000E+00  0.0000E+00
    -10.413  0.0000E+00  0.0000E+00  0.0000E+00  0.0000E+00  0.0000E+00  0.0000E+00  0.0000E+00  0.0000E+00  0.0000E+00
    -10.324  0.0000E+00  0.0000E+00  0.0000E+00  0.0000E+00  0.0000E+00  0.0000E+00  0.0000E+00  0.0000E+00  0.0000E+00
    -10.235  0.0000E+00  0.0000E+00  0.0000E+00  0.0000E+00  0.0000E+00  0.0000E+00  0.0000E+00  0.0000E+00  0.0000E+00
    -10.146  0.0000E+00  0.0000E+00  0.0000E+00  0.0000E+00  0.0000E+00  0.0000E+00  0.0000E+00  0.0000E+00  0.0000E+00
    -10.057  0.0000E+00  0.0000E+00  0.0000E+00  0.0000E+00  0.0000E+00  0.0000E+00  0.0000E+00  0.0000E+00  0.0000E+00
     -9.968  0.0000E+00  0.0000E+00  0.0000E+00  0.0000E+00  0.0000E+00  0.0000E+00  0.0000E+00  0.0000E+00  0.0000E+00
     -9.880  0.0000E+00  0.0000E+00  0.0000E+00  0.0000E+00  0.0000E+00  0.0000E+00  0.0000E+00  0.0000E+00  0.0000E+00
     -9.791  0.0000E+00  0.0000E+00  0.0000E+00  0.0000E+00  0.0000E+00  0.0000E+00  0.0000E+00  0.0000E+00  0.0000E+00
     -9.702  0.0000E+00  0.0000E+00  0.0000E+00  0.0000E+00  0.0000E+00  0.0000E+00  0.0000E+00  0.0000E+00  0.0000E+00
     -9.613  0.0000E+00  0.0000E+00  0.0000E+00  0.0000E+00  0.0000E+00  0.0000E+00  0.0000E+00  0.0000E+00  0.0000E+00
     -9.524  0.0000E+00  0.0000E+00  0.0000E+00  0.0000E+00  0.0000E+00  0.0000E+00  0.0000E+00  0.0000E+00  0.0000E+00
     -9.435  0.0000E+00  0.0000E+00  0.0000E+00  0.0000E+00  0.0000E+00  0.0000E+00  0.0000E+00  0.0000E+00  0.0000E+00
     -9.346  0.0000E+00  0.0000E+00  0.0000E+00  0.0000E+00  0.0000E+00  0.0000E+00  0.0000E+00  0.0000E+00  0.0000E+00
     -9.257  0.0000E+00  0.0000E+00  0.0000E+00  0.0000E+00  0.0000E+00  0.0000E+00  0.0000E+00  0.0000E+00  0.0000E+00
     -9.168  0.0000E+00  0.0000E+00  0.0000E+00  0.0000E+00  0.0000E+00  0.0000E+00  0.0000E+00  0.0000E+00  0.0000E+00
     -9.079  0.0000E+00  0.0000E+00  0.0000E+00  0.0000E+00  0.0000E+00  0.0000E+00  0.0000E+00  0.0000E+00  0.0000E+00
     -8.990  0.0000E+00  0.0000E+00  0.0000E+00  0.0000E+00  0.0000E+00  0.0000E+00  0.0000E+00  0.0000E+00  0.0000E+00
     -8.901  0.0000E+00  0.0000E+00  0.0000E+00  0.0000E+00  0.0000E+00  0.0000E+00  0.0000E+00  0.0000E+00  0.0000E+00
     -8.813  0.0000E+00  0.0000E+00  0.0000E+00  0.0000E+00  0.0000E+00  0.0000E+00  0.0000E+00  0.0000E+00  0.0000E+00
     -8.724  0.0000E+00  0.0000E+00  0.0000E+00  0.0000E+00  0.0000E+00  0.0000E+00  0.0000E+00  0.0000E+00  0.0000E+00
     -8.635  0.0000E+00  0.0000E+00  0.0000E+00  0.0000E+00  0.0000E+00  0.0000E+00  0.0000E+00  0.0000E+00  0.0000E+00
     -8.546  0.0000E+00  0.0000E+00  0.0000E+00  0.0000E+00  0.0000E+00  0.0000E+00  0.0000E+00  0.0000E+00  0.0000E+00
     -8.457  0.0000E+00  0.0000E+00  0.0000E+00  0.0000E+00  0.0000E+00  0.0000E+00  0.0000E+00  0.0000E+00  0.0000E+00
     -8.368  0.0000E+00  0.0000E+00  0.0000E+00  0.0000E+00  0.0000E+00  0.0000E+00  0.0000E+00  0.0000E+00  0.0000E+00
     -8.279  0.0000E+00  0.0000E+00  0.0000E+00  0.0000E+00  0.0000E+00  0.0000E+00  0.0000E+00  0.0000E+00  0.0000E+00
     -8.190  0.0000E+00  0.0000E+00  0.0000E+00  0.0000E+00  0.0000E+00  0.0000E+00  0.0000E+00  0.0000E+00  0.0000E+00
     -8.101  0.0000E+00  0.0000E+00  0.0000E+00  0.0000E+00  0.0000E+00  0.0000E+00  0.0000E+00  0.0000E+00  0.0000E+00
     -8.012  0.0000E+00  0.0000E+00  0.0000E+00  0.0000E+00  0.0000E+00  0.0000E+00  0.0000E+00  0.0000E+00  0.0000E+00
     -7.923  0.0000E+00  0.0000E+00  0.0000E+00  0.0000E+00  0.0000E+00  0.0000E+00  0.0000E+00  0.0000E+00  0.0000E+00
     -7.834  0.0000E+00  0.0000E+00  0.0000E+00  0.0000E+00  0.0000E+00  0.0000E+00  0.0000E+00  0.0000E+00  0.0000E+00
     -7.746  0.0000E+00  0.0000E+00  0.0000E+00  0.0000E+00  0.0000E+00  0.0000E+00  0.0000E+00  0.0000E+00  0.0000E+00
     -7.657  0.0000E+00  0.0000E+00  0.0000E+00  0.0000E+00  0.0000E+00  0.0000E+00  0.0000E+00  0.0000E+00  0.0000E+00
     -7.568  0.0000E+00  0.0000E+00  0.0000E+00  0.0000E+00  0.0000E+00  0.0000E+00  0.0000E+00  0.0000E+00  0.0000E+00
     -7.479  0.0000E+00  0.0000E+00  0.0000E+00  0.0000E+00  0.0000E+00  0.0000E+00  0.0000E+00  0.0000E+00  0.0000E+00
     -7.390  0.0000E+00  0.0000E+00  0.0000E+00  0.0000E+00  0.0000E+00  0.0000E+00  0.0000E+00  0.0000E+00  0.0000E+00
     -7.301  0.0000E+00  0.0000E+00  0.0000E+00  0.0000E+00  0.0000E+00  0.0000E+00  0.0000E+00  0.0000E+00  0.0000E+00
     -7.212  0.0000E+00  0.0000E+00  0.0000E+00  0.0000E+00  0.0000E+00  0.0000E+00  0.0000E+00  0.0000E+00  0.0000E+00
     -7.123  0.0000E+00  0.0000E+00  0.0000E+00  0.0000E+00  0.0000E+00  0.0000E+00  0.0000E+00  0.0000E+00  0.0000E+00
     -7.034  0.0000E+00  0.0000E+00  0.0000E+00  0.0000E+00  0.0000E+00  0.0000E+00  0.0000E+00  0.0000E+00  0.0000E+00
     -6.945  0.0000E+00  0.0000E+00  0.0000E+00  0.0000E+00  0.0000E+00  0.0000E+00  0.0000E+00  0.0000E+00  0.0000E+00
     -6.856  0.0000E+00  0.0000E+00  0.0000E+00  0.0000E+00  0.0000E+00  0.0000E+00  0.0000E+00  0.0000E+00  0.0000E+00
     -6.767  0.0000E+00  0.0000E+00  0.0000E+00  0.0000E+00  0.0000E+00  0.0000E+00  0.0000E+00  0.0000E+00  0.0000E+00
     -6.679  0.0000E+00  0.0000E+00  0.0000E+00  0.0000E+00  0.0000E+00  0.0000E+00  0.0000E+00  0.0000E+00  0.0000E+00
     -6.590  0.0000E+00  0.0000E+00  0.0000E+00  0.0000E+00  0.0000E+00  0.0000E+00  0.0000E+00  0.0000E+00  0.0000E+00
     -6.501  0.0000E+00  0.0000E+00  0.0000E+00  0.0000E+00  0.0000E+00  0.0000E+00  0.0000E+00  0.0000E+00  0.0000E+00
     -6.412  0.0000E+00  0.0000E+00  0.0000E+00  0.0000E+00  0.0000E+00  0.0000E+00  0.0000E+00  0.0000E+00  0.0000E+00
     -6.323  0.0000E+00  0.0000E+00  0.0000E+00  0.0000E+00  0.0000E+00  0.0000E+00  0.0000E+00  0.0000E+00  0.0000E+00
     -6.234  0.4336E-11  0.2662E-13  0.1522E-13  0.2434E-13  0.4504E-14  0.3474E-14  0.2746E-14  0.3253E-14  0.4206E-14
     -6.145  0.4472E-05  0.2750E-07  0.1575E-07  0.2515E-07  0.4648E-08  0.3588E-08  0.2841E-08  0.3361E-08  0.4344E-08
     -6.056  0.1295E-01  0.8006E-04  0.4605E-04  0.7326E-04  0.1349E-04  0.1044E-04  0.8303E-05  0.9780E-05  0.1264E-04
     -5.967  0.2632E+00  0.1657E-02  0.9700E-03  0.1520E-02  0.2759E-03  0.2153E-03  0.1745E-03  0.2022E-03  0.2611E-03
     -5.878  0.3884E+00  0.2665E-02  0.1703E-02  0.2472E-02  0.4212E-03  0.3402E-03  0.2973E-03  0.3218E-03  0.4178E-03
     -5.789  0.4812E+00  0.3764E-02  0.2583E-02  0.3527E-02  0.5329E-03  0.4452E-03  0.4354E-03  0.4338E-03  0.5804E-03
     -5.700  0.9940E+00  0.1012E-01  0.6714E-02  0.9438E-02  0.1043E-02  0.8436E-03  0.8447E-03  0.8598E-03  0.1184E-02
     -5.612  0.1134E+01  0.1196E-01  0.7804E-02  0.1113E-01  0.1187E-02  0.9971E-03  0.1072E-02  0.1058E-02  0.1425E-02
     -5.523  0.9819E+00  0.1017E-01  0.6399E-02  0.9414E-02  0.1096E-02  0.1011E-02  0.1243E-02  0.1078E-02  0.1479E-02
     -5.434  0.6694E+00  0.7365E-02  0.4537E-02  0.6799E-02  0.7746E-03  0.6981E-03  0.9197E-03  0.7575E-03  0.1138E-02
     -5.345  0.8499E+00  0.1033E-01  0.6289E-02  0.9519E-02  0.9770E-03  0.8844E-03  0.1190E-02  0.9668E-03  0.1470E-02
     -5.256  0.9283E+00  0.1139E-01  0.7242E-02  0.1056E-01  0.1103E-02  0.1087E-02  0.1482E-02  0.1173E-02  0.1666E-02
     -5.167  0.9401E+00  0.1151E-01  0.7422E-02  0.1070E-01  0.1260E-02  0.1267E-02  0.1819E-02  0.1425E-02  0.2029E-02
     -5.078  0.8908E+00  0.1398E-01  0.8659E-02  0.1292E-01  0.1143E-02  0.1250E-02  0.1856E-02  0.1326E-02  0.1916E-02
     -4.989  0.1335E+01  0.2270E-01  0.1371E-01  0.2090E-01  0.1678E-02  0.2255E-02  0.3462E-02  0.2254E-02  0.2964E-02
     -4.900  0.9441E+00  0.1531E-01  0.9599E-02  0.1417E-01  0.1237E-02  0.1638E-02  0.2490E-02  0.1681E-02  0.2151E-02
     -4.811  0.8138E+00  0.1165E-01  0.7322E-02  0.1078E-01  0.1219E-02  0.1475E-02  0.2186E-02  0.1540E-02  0.2035E-02
     -4.722  0.2294E+00  0.2579E-02  0.1980E-02  0.2460E-02  0.2982E-03  0.3580E-03  0.5066E-03  0.3841E-03  0.4644E-03
     -4.633  0.1186E+00  0.4668E-03  0.9799E-03  0.5695E-03  0.7536E-04  0.9227E-04  0.9441E-04  0.1159E-03  0.6653E-04
     -4.545  0.7161E-01  0.3497E-03  0.5956E-03  0.3989E-03  0.4506E-04  0.5454E-04  0.5526E-04  0.6842E-04  0.3943E-04
     -4.456  0.5910E-01  0.3327E-03  0.4920E-03  0.3646E-03  0.3721E-04  0.4440E-04  0.4433E-04  0.5548E-04  0.3208E-04
     -4.367  0.5411E-01  0.3328E-03  0.4466E-03  0.3556E-03  0.3402E-04  0.4013E-04  0.3951E-04  0.4998E-04  0.2887E-04
     -4.278  0.5210E-01  0.3389E-03  0.4224E-03  0.3556E-03  0.3262E-04  0.3816E-04  0.3712E-04  0.4739E-04  0.2730E-04
     -4.189  0.5241E-01  0.3513E-03  0.4138E-03  0.3638E-03  0.3260E-04  0.3789E-04  0.3653E-04  0.4696E-04  0.2698E-04
     -4.100  0.5717E-01  0.3834E-03  0.4354E-03  0.3938E-03  0.3522E-04  0.4074E-04  0.3896E-04  0.5039E-04  0.2885E-04
     -4.011  0.1309E+00  0.8043E-03  0.9401E-03  0.8315E-03  0.7919E-04  0.9086E-04  0.8564E-04  0.1122E-03  0.6371E-04
     -3.922  0.1773E+00  0.1104E-02  0.1251E-02  0.1134E-02  0.1056E-03  0.1215E-03  0.1151E-03  0.1501E-03  0.8544E-04
     -3.833  0.1122E+00  0.7722E-03  0.7778E-03  0.7733E-03  0.6496E-04  0.7604E-04  0.7393E-04  0.9408E-04  0.5425E-04
     -3.744  0.9980E-01  0.7181E-03  0.6722E-03  0.7089E-03  0.5663E-04  0.6736E-04  0.6699E-04  0.8322E-04  0.4860E-04
     -3.655  0.9874E-01  0.7205E-03  0.6448E-03  0.7054E-03  0.5519E-04  0.6674E-04  0.6782E-04  0.8218E-04  0.4862E-04
     -3.566  0.1223E+00  0.8819E-03  0.7845E-03  0.8624E-03  0.6754E-04  0.8325E-04  0.8660E-04  0.1020E-03  0.6123E-04
     -3.478  0.2066E+00  0.1451E-02  0.1346E-02  0.1430E-02  0.1141E-03  0.1420E-03  0.1492E-03  0.1731E-03  0.1046E-03
     -3.389  0.2859E+00  0.1944E-02  0.1897E-02  0.1934E-02  0.1646E-03  0.2025E-03  0.2102E-03  0.2460E-03  0.1488E-03
     -3.300  0.4377E+00  0.2931E-02  0.2987E-02  0.2942E-02  0.2540E-03  0.3121E-03  0.3247E-03  0.3805E-03  0.2310E-03
     -3.211  0.2373E+00  0.1531E-02  0.1908E-02  0.1607E-02  0.1389E-03  0.1717E-03  0.1796E-03  0.2097E-03  0.1269E-03
     -3.122  0.2571E+00  0.2914E-02  0.6042E-02  0.3540E-02  0.1538E-03  0.1870E-03  0.1889E-03  0.2287E-03  0.1333E-03
     -3.033  0.4244E+00  0.6769E-02  0.1623E-01  0.8662E-02  0.2610E-03  0.3098E-03  0.3016E-03  0.3812E-03  0.2151E-03
     -2.944  0.4730E+00  0.4900E-02  0.1212E-01  0.6345E-02  0.3273E-03  0.3754E-03  0.3499E-03  0.4561E-03  0.2578E-03
     -2.855  0.1302E+00  0.1007E-02  0.2519E-02  0.1309E-02  0.9731E-04  0.1098E-03  0.1007E-03  0.1321E-03  0.7575E-04
     -2.766  0.9345E-03  0.6679E-05  0.1664E-04  0.8672E-05  0.7125E-06  0.8019E-06  0.7337E-06  0.9625E-06  0.5544E-06
     -2.677  0.2851E-07  0.1998E-09  0.4971E-09  0.2593E-09  0.2185E-10  0.2457E-10  0.2247E-10  0.2948E-10  0.1699E-10
     -2.588  0.2090E-14  0.1452E-16  0.3608E-16  0.1883E-16  0.1605E-17  0.1805E-17  0.1650E-17  0.2165E-17  0.1248E-17
     -2.499  0.0000E+00  0.0000E+00  0.0000E+00  0.0000E+00  0.0000E+00  0.0000E+00  0.0000E+00  0.0000E+00  0.0000E+00
     -2.411  0.0000E+00  0.0000E+00  0.0000E+00  0.0000E+00  0.0000E+00  0.0000E+00  0.0000E+00  0.0000E+00  0.0000E+00
     -2.322  0.0000E+00  0.0000E+00  0.0000E+00  0.0000E+00  0.0000E+00  0.0000E+00  0.0000E+00  0.0000E+00  0.0000E+00
     -2.233  0.0000E+00  0.0000E+00  0.0000E+00  0.0000E+00  0.0000E+00  0.0000E+00  0.0000E+00  0.0000E+00  0.0000E+00
     -2.144  0.0000E+00  0.0000E+00  0.0000E+00  0.0000E+00  0.0000E+00  0.0000E+00  0.0000E+00  0.0000E+00  0.0000E+00
     -2.055  0.0000E+00  0.0000E+00  0.0000E+00  0.0000E+00  0.0000E+00  0.0000E+00  0.0000E+00  0.0000E+00  0.0000E+00
     -1.966  0.0000E+00  0.0000E+00  0.0000E+00  0.0000E+00  0.0000E+00  0.0000E+00  0.0000E+00  0.0000E+00  0.0000E+00
     -1.877  0.0000E+00  0.0000E+00  0.0000E+00  0.0000E+00  0.0000E+00  0.0000E+00  0.0000E+00  0.0000E+00  0.0000E+00
     -1.788  0.0000E+00  0.0000E+00  0.0000E+00  0.0000E+00  0.0000E+00  0.0000E+00  0.0000E+00  0.0000E+00  0.0000E+00
     -1.699  0.0000E+00  0.0000E+00  0.0000E+00  0.0000E+00  0.0000E+00  0.0000E+00  0.0000E+00  0.0000E+00  0.0000E+00
     -1.610  0.0000E+00  0.0000E+00  0.0000E+00  0.0000E+00  0.0000E+00  0.0000E+00  0.0000E+00  0.0000E+00  0.0000E+00
     -1.521  0.0000E+00  0.0000E+00  0.0000E+00  0.0000E+00  0.0000E+00  0.0000E+00  0.0000E+00  0.0000E+00  0.0000E+00
     -1.432  0.0000E+00  0.0000E+00  0.0000E+00  0.0000E+00  0.0000E+00  0.0000E+00  0.0000E+00  0.0000E+00  0.0000E+00