       N       E                     dE             d eps       ncg     rms          rms(c)
DAV:   1     0.766977927575E+03    0.76698E+03   -0.54937E+04 21352   0.163E+03
DAV:   2    -0.258574500843E+02   -0.79284E+03   -0.75906E+03 27380   0.281E+02
DAV:   3    -0.110193898300E+03   -0.84336E+02   -0.82834E+02 25292   0.100E+02
DAV:   4    -0.113299142984E+03   -0.31052E+01   -0.30863E+01 29584   0.182E+01
DAV:   5    -0.113381666194E+03   -0.82523E-01   -0.82431E-01 27176   0.299E+00
RMM:   6    -0.113383962457E+03   -0.22963E-02   -0.22963E-02 22315   0.533E-01
RMM:   7    -0.113385106000E+03   -0.11435E-02   -0.11403E-02 31842   0.208E-01
RMM:   8    -0.113385164228E+03   -0.58229E-04   -0.70057E-04 27651   0.609E-02
RMM:   9    -0.113385176876E+03   -0.12647E-04   -0.13213E-04 28650   0.201E-02
RMM:  10    -0.113385178109E+03   -0.12328E-05   -0.13914E-05 20200   0.724E-03
RMM:  11    -0.113385178328E+03   -0.21886E-06   -0.23494E-06 16494   0.274E-03
   1 F= -.11837076E+03 E0= -.11837076E+03  d E =-.725592E-12
