  80  80   1   0
  0.1775400E+02  0.1124075E-08  0.1124075E-08  0.1124075E-08  0.5000000E-15
  1.000000000000000E-004
  CAR 
 unknown system                          
     11.04410800    -15.22376400  301      4.31296580      1.00000000
    -15.224  0.0000E+00  0.0000E+00
    -15.136  0.0000E+00  0.0000E+00
    -15.049  0.0000E+00  0.0000E+00
    -14.961  0.0000E+00  0.0000E+00
    -14.874  0.0000E+00  0.0000E+00
    -14.786  0.0000E+00  0.0000E+00
    -14.698  0.0000E+00  0.0000E+00
    -14.611  0.0000E+00  0.0000E+00
    -14.523  0.0000E+00  0.0000E+00
    -14.436  0.0000E+00  0.0000E+00
    -14.348  0.0000E+00  0.0000E+00
    -14.261  0.6263E-10  0.5484E-11
    -14.173  0.5717E-04  0.5006E-05
    -14.085  0.1734E+00  0.1519E-01
    -13.998  0.3997E+01  0.3652E+00
    -13.910  0.7401E+01  0.1013E+01
    -13.823  0.1497E+02  0.2324E+01
    -13.735  0.3166E+02  0.5096E+01
    -13.648  0.2413E+02  0.7209E+01
    -13.560  0.1039E+02  0.8118E+01
    -13.473  0.2518E+02  0.1032E+02
    -13.385  0.3412E+02  0.1331E+02
    -13.297  0.2630E+02  0.1561E+02
    -13.210  0.3549E+02  0.1872E+02
    -13.122  0.4563E+02  0.2272E+02
    -13.035  0.6715E+02  0.2860E+02
    -12.947  0.7490E+02  0.3516E+02
    -12.860  0.6567E+02  0.4091E+02
    -12.772  0.5781E+02  0.4597E+02
    -12.685  0.3228E+02  0.4879E+02
    -12.597  0.6743E+02  0.5470E+02
    -12.509  0.9230E+02  0.6278E+02
    -12.422  0.1151E+03  0.7286E+02
    -12.334  0.1224E+03  0.8357E+02
    -12.247  0.1116E+03  0.9335E+02
    -12.159  0.2957E+02  0.9593E+02
    -12.072  0.7503E+00  0.9600E+02
    -11.984  0.2176E-03  0.9600E+02
    -11.897  0.2191E-09  0.9600E+02
    -11.809  0.0000E+00  0.9600E+02
    -11.721  0.0000E+00  0.9600E+02
    -11.634  0.0000E+00  0.9600E+02
    -11.546  0.0000E+00  0.9600E+02
    -11.459  0.0000E+00  0.9600E+02
    -11.371  0.0000E+00  0.9600E+02
    -11.284  0.0000E+00  0.9600E+02
    -11.196  0.0000E+00  0.9600E+02
    -11.108  0.0000E+00  0.9600E+02
    -11.021  0.0000E+00  0.9600E+02
    -10.933  0.0000E+00  0.9600E+02
    -10.846  0.0000E+00  0.9600E+02
    -10.758  0.0000E+00  0.9600E+02
    -10.671  0.0000E+00  0.9600E+02
    -10.583  0.0000E+00  0.9600E+02
    -10.496  0.0000E+00  0.9600E+02
    -10.408  0.0000E+00  0.9600E+02
    -10.320  0.0000E+00  0.9600E+02
    -10.233  0.0000E+00  0.9600E+02
    -10.145  0.0000E+00  0.9600E+02
    -10.058  0.0000E+00  0.9600E+02
     -9.970  0.0000E+00  0.9600E+02
     -9.883  0.0000E+00  0.9600E+02
     -9.795  0.0000E+00  0.9600E+02
     -9.708  0.0000E+00  0.9600E+02
     -9.620  0.0000E+00  0.9600E+02
     -9.532  0.0000E+00  0.9600E+02
     -9.445  0.0000E+00  0.9600E+02
     -9.357  0.0000E+00  0.9600E+02
     -9.270  0.0000E+00  0.9600E+02
     -9.182  0.0000E+00  0.9600E+02
     -9.095  0.0000E+00  0.9600E+02
     -9.007  0.0000E+00  0.9600E+02
     -8.919  0.0000E+00  0.9600E+02
     -8.832  0.0000E+00  0.9600E+02
     -8.744  0.0000E+00  0.9600E+02
     -8.657  0.0000E+00  0.9600E+02
     -8.569  0.0000E+00  0.9600E+02
     -8.482  0.0000E+00  0.9600E+02
     -8.394  0.0000E+00  0.9600E+02
     -8.307  0.0000E+00  0.9600E+02
     -8.219  0.0000E+00  0.9600E+02
     -8.131  0.0000E+00  0.9600E+02
     -8.044  0.0000E+00  0.9600E+02
     -7.956  0.0000E+00  0.9600E+02
     -7.869  0.0000E+00  0.9600E+02
     -7.781  0.0000E+00  0.9600E+02
     -7.694  0.0000E+00  0.9600E+02
     -7.606  0.0000E+00  0.9600E+02
     -7.519  0.0000E+00  0.9600E+02
     -7.431  0.0000E+00  0.9600E+02
     -7.343  0.0000E+00  0.9600E+02
     -7.256  0.0000E+00  0.9600E+02
     -7.168  0.0000E+00  0.9600E+02
     -7.081  0.0000E+00  0.9600E+02
     -6.993  0.0000E+00  0.9600E+02
     -6.906  0.0000E+00  0.9600E+02
     -6.818  0.0000E+00  0.9600E+02
     -6.730  0.0000E+00  0.9600E+02
     -6.643  0.0000E+00  0.9600E+02
     -6.555  0.0000E+00  0.9600E+02
     -6.468  0.0000E+00  0.9600E+02
     -6.380  0.0000E+00  0.9600E+02
     -6.293  0.0000E+00  0.9600E+02
     -6.205  0.0000E+00  0.9600E+02
     -6.118  0.8712E-08  0.9600E+02
     -6.030  0.2016E-02  0.9600E+02
     -5.942  0.1816E+01  0.9616E+02
     -5.855  0.2261E+02  0.9814E+02
     -5.767  0.5739E+02  0.1032E+03
     -5.680  0.6281E+02  0.1087E+03
     -5.592  0.4283E+02  0.1124E+03
     -5.505  0.4966E+02  0.1168E+03
     -5.417  0.4450E+02  0.1207E+03
     -5.330  0.5170E+02  0.1252E+03
     -5.242  0.5836E+02  0.1303E+03
     -5.154  0.4522E+02  0.1343E+03
     -5.067  0.6337E+02  0.1398E+03
     -4.979  0.4444E+02  0.1437E+03
     -4.892  0.3480E+01  0.1440E+03
     -4.804  0.5892E-01  0.1440E+03
     -4.717  0.1615E+01  0.1441E+03
     -4.629  0.2127E+01  0.1443E+03
     -4.541  0.1510E+01  0.1445E+03
     -4.454  0.1415E+01  0.1446E+03
     -4.366  0.2027E+01  0.1448E+03
     -4.279  0.7510E+01  0.1454E+03
     -4.191  0.1205E+02  0.1465E+03
     -4.104  0.2209E+02  0.1484E+03
     -4.016  0.3145E+02  0.1512E+03
     -3.929  0.9302E+01  0.1520E+03
     -3.841  0.2752E+01  0.1522E+03
     -3.753  0.1481E+02  0.1535E+03
     -3.666  0.1019E+02  0.1544E+03
     -3.578  0.1354E+02  0.1556E+03
     -3.491  0.2105E+02  0.1574E+03
     -3.403  0.8692E+01  0.1582E+03
     -3.316  0.5154E+01  0.1587E+03
     -3.228  0.6442E+01  0.1592E+03
     -3.141  0.2207E+01  0.1594E+03
     -3.053  0.2120E+01  0.1596E+03
     -2.965  0.3536E+01  0.1599E+03
     -2.878  0.1090E+01  0.1600E+03
     -2.790  0.6420E-02  0.1600E+03
     -2.703  0.1728E-06  0.1600E+03
     -2.615  0.1346E-13  0.1600E+03
     -2.528  0.0000E+00  0.1600E+03
     -2.440  0.0000E+00  0.1600E+03
     -2.353  0.0000E+00  0.1600E+03
     -2.265  0.0000E+00  0.1600E+03
     -2.177  0.0000E+00  0.1600E+03
     -2.090  0.0000E+00  0.1600E+03
     -2.002  0.0000E+00  0.1600E+03
     -1.915  0.0000E+00  0.1600E+03
     -1.827  0.0000E+00  0.1600E+03
     -1.740  0.0000E+00  0.1600E+03
     -1.652  0.0000E+00  0.1600E+03
     -1.564  0.0000E+00  0.1600E+03
     -1.477  0.0000E+00  0.1600E+03
     -1.389  0.0000E+00  0.1600E+03
     -1.302  0.0000E+00  0.1600E+03
     -1.214  0.0000E+00  0.1600E+03
     -1.127  0.0000E+00  0.1600E+03
     -1.039  0.0000E+00  0.1600E+03
     -0.952  0.0000E+00  0.1600E+03
     -0.864  0.5749E-09  0.1600E+03
     -0.776  0.5611E-03  0.1600E+03
     -0.689  0.1976E+01  0.1602E+03
     -0.601  0.5069E+02  0.1646E+03
     -0.514  0.3721E+02  0.1679E+03
     -0.426  0.3559E+02  0.1710E+03
     -0.339  0.5579E+02  0.1759E+03
     -0.251  0.3794E+02  0.1792E+03
     -0.164  0.5786E+02  0.1843E+03
     -0.076  0.6195E+02  0.1897E+03
      0.012  0.8084E+02  0.1968E+03
      0.099  0.8380E+02  0.2041E+03
      0.187  0.3746E+02  0.2074E+03
      0.274  0.4000E+02  0.2109E+03
      0.362  0.5228E+02  0.2155E+03
      0.449  0.4493E+02  0.2194E+03
      0.537  0.4970E+02  0.2237E+03
      0.625  0.5372E+02  0.2284E+03
      0.712  0.5146E+02  0.2330E+03
      0.800  0.6723E+02  0.2388E+03
      0.887  0.7503E+02  0.2454E+03
      0.975  0.6662E+02  0.2512E+03
      1.062  0.5141E+02  0.2557E+03
      1.150  0.3079E+02  0.2584E+03
      1.237  0.3480E+02  0.2615E+03
      1.325  0.2782E+02  0.2639E+03
      1.413  0.3449E+02  0.2669E+03
      1.500  0.6380E+02  0.2725E+03
      1.588  0.5346E+02  0.2772E+03
      1.675  0.3664E+02  0.2804E+03
      1.763  0.6511E+02  0.2861E+03
      1.850  0.7172E+02  0.2924E+03
      1.938  0.7377E+02  0.2989E+03
      2.025  0.6073E+02  0.3042E+03
      2.113  0.7854E+02  0.3111E+03
      2.201  0.6666E+02  0.3169E+03
      2.288  0.5503E+02  0.3217E+03
      2.376  0.7688E+02  0.3284E+03
      2.463  0.8791E+02  0.3361E+03
      2.551  0.9627E+02  0.3446E+03
      2.638  0.8801E+02  0.3523E+03
      2.726  0.1088E+03  0.3618E+03
      2.814  0.1131E+03  0.3717E+03
      2.901  0.1002E+03  0.3805E+03
      2.989  0.5485E+02  0.3853E+03
      3.076  0.2031E+02  0.3871E+03
      3.164  0.2826E+02  0.3895E+03
      3.251  0.2499E+02  0.3917E+03
      3.339  0.4819E+02  0.3959E+03
      3.426  0.3827E+02  0.3993E+03
      3.514  0.2257E+02  0.4013E+03
      3.602  0.4285E+02  0.4050E+03
      3.689  0.8524E+02  0.4125E+03
      3.777  0.1219E+03  0.4231E+03
      3.864  0.7913E+02  0.4301E+03
      3.952  0.9033E+02  0.4380E+03
      4.039  0.9032E+02  0.4459E+03
      4.127  0.2351E+02  0.4480E+03
      4.214  0.5300E+00  0.4480E+03
      4.302  0.1115E-03  0.4480E+03
      4.390  0.8001E-10  0.4480E+03
      4.477  0.0000E+00  0.4480E+03
      4.565  0.0000E+00  0.4480E+03
      4.652  0.0000E+00  0.4480E+03
      4.740  0.0000E+00  0.4480E+03
      4.827  0.0000E+00  0.4480E+03
      4.915  0.0000E+00  0.4480E+03
      5.002  0.0000E+00  0.4480E+03
      5.090  0.0000E+00  0.4480E+03
      5.178  0.0000E+00  0.4480E+03
      5.265  0.0000E+00  0.4480E+03
      5.353  0.0000E+00  0.4480E+03
      5.440  0.0000E+00  0.4480E+03
      5.528  0.0000E+00  0.4480E+03
      5.615  0.0000E+00  0.4480E+03
      5.703  0.0000E+00  0.4480E+03
      5.791  0.0000E+00  0.4480E+03
      5.878  0.0000E+00  0.4480E+03
      5.966  0.0000E+00  0.4480E+03
      6.053  0.0000E+00  0.4480E+03
      6.141  0.1973E-13  0.4480E+03
      6.228  0.2166E-06  0.4480E+03
      6.316  0.8090E-02  0.4480E+03
      6.403  0.2031E+01  0.4482E+03
      6.491  0.1717E+02  0.4497E+03
      6.579  0.1832E+02  0.4513E+03
      6.666  0.1999E+02  0.4530E+03
      6.754  0.3008E+02  0.4557E+03
      6.841  0.2570E+02  0.4579E+03
      6.929  0.2814E+02  0.4604E+03
      7.016  0.1985E+02  0.4621E+03
      7.104  0.1536E+02  0.4635E+03
      7.191  0.2992E+02  0.4661E+03
      7.279  0.3715E+02  0.4693E+03
      7.367  0.2162E+02  0.4712E+03
      7.454  0.3173E+02  0.4740E+03
      7.542  0.3523E+02  0.4771E+03
      7.629  0.3566E+02  0.4802E+03
      7.717  0.3916E+02  0.4836E+03
      7.804  0.3551E+02  0.4868E+03
      7.892  0.2299E+02  0.4888E+03
      7.980  0.3305E+02  0.4917E+03
      8.067  0.2530E+02  0.4939E+03
      8.155  0.1865E+02  0.4955E+03
      8.242  0.2340E+02  0.4976E+03
      8.330  0.3772E+02  0.5009E+03
      8.417  0.4360E+02  0.5047E+03
      8.505  0.2685E+02  0.5070E+03
      8.592  0.2586E+02  0.5093E+03
      8.680  0.3292E+02  0.5122E+03
      8.768  0.3400E+02  0.5152E+03
      8.855  0.2863E+02  0.5177E+03
      8.943  0.3513E+02  0.5207E+03
      9.030  0.3498E+02  0.5238E+03
      9.118  0.4173E+02  0.5275E+03
      9.205  0.3238E+02  0.5303E+03
      9.293  0.2678E+02  0.5326E+03
      9.380  0.2082E+02  0.5345E+03
      9.468  0.2566E+02  0.5367E+03
      9.556  0.2663E+02  0.5390E+03
      9.643  0.2294E+02  0.5410E+03
      9.731  0.2053E+02  0.5428E+03
      9.818  0.1084E+02  0.5438E+03
      9.906  0.2327E+01  0.5440E+03
      9.993  0.4703E-01  0.5440E+03
     10.081  0.1286E-04  0.5440E+03
     10.169  0.1354E-10  0.5440E+03
     10.256  0.0000E+00  0.5440E+03
     10.344  0.0000E+00  0.5440E+03
     10.431  0.0000E+00  0.5440E+03
     10.519  0.0000E+00  0.5440E+03
     10.606  0.0000E+00  0.5440E+03
     10.694  0.0000E+00  0.5440E+03
     10.781  0.0000E+00  0.5440E+03
     10.869  0.0000E+00  0.5440E+03
     10.957  0.0000E+00  0.5440E+03
     11.044  0.0000E+00  0.5440E+03
     11.04410800    -15.22376400  301      4.31296580      1.00000000
    -15.224  0.0000E+00  0.0000E+00  0.0000E+00  0.0000E+00  0.0000E+00  0.0000E+00  0.0000E+00  0.0000E+00  0.0000E+00
    -15.136  0.0000E+00  0.0000E+00  0.0000E+00  0.0000E+00  0.0000E+00  0.0000E+00  0.0000E+00  0.0000E+00  0.0000E+00
    -15.049  0.0000E+00  0.0000E+00  0.0000E+00  0.0000E+00  0.0000E+00  0.0000E+00  0.0000E+00  0.0000E+00  0.0000E+00
    -14.961  0.0000E+00  0.0000E+00  0.0000E+00  0.0000E+00  0.0000E+00  0.0000E+00  0.0000E+00  0.0000E+00  0.0000E+00
    -14.874  0.0000E+00  0.0000E+00  0.0000E+00  0.0000E+00  0.0000E+00  0.0000E+00  0.0000E+00  0.0000E+00  0.0000E+00
    -14.786  0.0000E+00  0.0000E+00  0.0000E+00  0.0000E+00  0.0000E+00  0.0000E+00  0.0000E+00  0.0000E+00  0.0000E+00
    -14.698  0.0000E+00  0.0000E+00  0.0000E+00  0.0000E+00  0.0000E+00  0.0000E+00  0.0000E+00  0.0000E+00  0.0000E+00
    -14.611  0.0000E+00  0.0000E+00  0.0000E+00  0.0000E+00  0.0000E+00  0.0000E+00  0.0000E+00  0.0000E+00  0.0000E+00
    -14.523  0.0000E+00  0.0000E+00  0.0000E+00  0.0000E+00  0.0000E+00  0.0000E+00  0.0000E+00  0.0000E+00  0.0000E+00
    -14.436  0.0000E+00  0.0000E+00  0.0000E+00  0.0000E+00  0.0000E+00  0.0000E+00  0.0000E+00  0.0000E+00  0.0000E+00
    -14.348  0.0000E+00  0.0000E+00  0.0000E+00  0.0000E+00  0.0000E+00  0.0000E+00  0.0000E+00  0.0000E+00  0.0000E+00
    -14.261  0.3275E-12  0.5442E-14  0.5442E-14  0.5442E-14  0.2647E-15  0.2647E-15  0.3244E-18  0.2647E-15  0.3244E-18
    -14.173  0.2986E-06  0.4998E-08  0.4998E-08  0.4998E-08  0.2418E-09  0.2418E-09  0.4630E-12  0.2418E-09  0.4630E-12
    -14.085  0.9028E-03  0.1540E-04  0.1540E-04  0.1540E-04  0.7350E-06  0.7350E-06  0.2718E-08  0.7350E-06  0.2718E-08
    -13.998  0.2055E-01  0.3753E-03  0.3753E-03  0.3753E-03  0.1709E-04  0.1709E-04  0.1758E-06  0.1709E-04  0.1758E-06
    -13.910  0.3475E-01  0.9297E-03  0.9297E-03  0.9297E-03  0.3333E-04  0.3333E-04  0.1684E-05  0.3333E-04  0.1684E-05
    -13.823  0.5911E-01  0.2411E-02  0.2411E-02  0.2411E-02  0.7842E-04  0.7842E-04  0.5569E-05  0.7842E-04  0.5569E-05
    -13.735  0.9687E-01  0.5910E-02  0.5910E-02  0.5910E-02  0.1883E-03  0.1883E-03  0.1281E-04  0.1883E-03  0.1281E-04
    -13.648  0.3981E-01  0.5608E-02  0.5608E-02  0.5608E-02  0.1258E-03  0.1258E-03  0.1687E-04  0.1258E-03  0.1687E-04
    -13.560  0.1531E-01  0.2735E-02  0.2735E-02  0.2735E-02  0.6631E-04  0.6631E-04  0.1082E-04  0.6631E-04  0.1082E-04
    -13.473  0.1591E+00  0.7368E-02  0.7368E-02  0.7368E-02  0.3838E-03  0.3838E-03  0.5440E-04  0.3838E-03  0.5440E-04
    -13.385  0.1998E+00  0.1082E-01  0.1082E-01  0.1082E-01  0.5223E-03  0.5223E-03  0.7380E-04  0.5223E-03  0.7380E-04
    -13.297  0.1286E+00  0.9074E-02  0.9074E-02  0.9074E-02  0.5294E-03  0.5294E-03  0.7032E-04  0.5294E-03  0.7032E-04
    -13.210  0.1066E+00  0.1276E-01  0.1276E-01  0.1276E-01  0.1015E-02  0.1015E-02  0.1707E-03  0.1015E-02  0.1707E-03
    -13.122  0.9960E-01  0.1807E-01  0.1807E-01  0.1807E-01  0.1520E-02  0.1520E-02  0.2430E-03  0.1520E-02  0.2430E-03
    -13.035  0.1222E+00  0.2495E-01  0.2495E-01  0.2495E-01  0.2316E-02  0.2316E-02  0.3227E-03  0.2316E-02  0.3227E-03
    -12.947  0.1757E+00  0.2707E-01  0.2707E-01  0.2707E-01  0.2661E-02  0.2661E-02  0.3463E-03  0.2661E-02  0.3463E-03
    -12.860  0.1502E+00  0.3265E-01  0.3265E-01  0.3265E-01  0.4597E-02  0.4597E-02  0.6487E-03  0.4597E-02  0.6487E-03
    -12.772  0.1164E+00  0.2699E-01  0.2699E-01  0.2699E-01  0.3996E-02  0.3996E-02  0.5803E-03  0.3996E-02  0.5803E-03
    -12.685  0.6042E-01  0.1388E-01  0.1388E-01  0.1388E-01  0.1988E-02  0.1988E-02  0.3044E-03  0.1988E-02  0.3044E-03
    -12.597  0.6842E-01  0.3638E-01  0.3638E-01  0.3638E-01  0.6100E-02  0.6100E-02  0.1083E-02  0.6100E-02  0.1083E-02
    -12.509  0.7138E-01  0.5409E-01  0.5409E-01  0.5409E-01  0.1038E-01  0.1038E-01  0.1890E-02  0.1038E-01  0.1890E-02
    -12.422  0.7006E-01  0.6063E-01  0.6063E-01  0.6063E-01  0.1591E-01  0.1591E-01  0.2719E-02  0.1591E-01  0.2719E-02
    -12.334  0.3725E-01  0.6002E-01  0.6002E-01  0.6002E-01  0.2044E-01  0.2044E-01  0.3257E-02  0.2044E-01  0.3257E-02
    -12.247  0.1462E-01  0.4487E-01  0.4487E-01  0.4487E-01  0.2152E-01  0.2152E-01  0.3206E-02  0.2152E-01  0.3206E-02
    -12.159  0.2580E-02  0.9308E-02  0.9308E-02  0.9308E-02  0.6190E-02  0.6190E-02  0.8415E-03  0.6190E-02  0.8415E-03
    -12.072  0.4603E-04  0.1951E-03  0.1951E-03  0.1951E-03  0.1666E-03  0.1666E-03  0.2141E-04  0.1666E-03  0.2141E-04
    -11.984  0.1222E-07  0.5455E-07  0.5455E-07  0.5455E-07  0.4886E-07  0.4886E-07  0.6219E-08  0.4886E-07  0.6219E-08
    -11.897  0.1189E-13  0.5442E-13  0.5442E-13  0.5442E-13  0.4936E-13  0.4936E-13  0.6266E-14  0.4936E-13  0.6266E-14
    -11.809  0.0000E+00  0.0000E+00  0.0000E+00  0.0000E+00  0.0000E+00  0.0000E+00  0.0000E+00  0.0000E+00  0.0000E+00
    -11.721  0.0000E+00  0.0000E+00  0.0000E+00  0.0000E+00  0.0000E+00  0.0000E+00  0.0000E+00  0.0000E+00  0.0000E+00
    -11.634  0.0000E+00  0.0000E+00  0.0000E+00  0.0000E+00  0.0000E+00  0.0000E+00  0.0000E+00  0.0000E+00  0.0000E+00
    -11.546  0.0000E+00  0.0000E+00  0.0000E+00  0.0000E+00  0.0000E+00  0.0000E+00  0.0000E+00  0.0000E+00  0.0000E+00
    -11.459  0.0000E+00  0.0000E+00  0.0000E+00  0.0000E+00  0.0000E+00  0.0000E+00  0.0000E+00  0.0000E+00  0.0000E+00
    -11.371  0.0000E+00  0.0000E+00  0.0000E+00  0.0000E+00  0.0000E+00  0.0000E+00  0.0000E+00  0.0000E+00  0.0000E+00
    -11.284  0.0000E+00  0.0000E+00  0.0000E+00  0.0000E+00  0.0000E+00  0.0000E+00  0.0000E+00  0.0000E+00  0.0000E+00
    -11.196  0.0000E+00  0.0000E+00  0.0000E+00  0.0000E+00  0.0000E+00  0.0000E+00  0.0000E+00  0.0000E+00  0.0000E+00
    -11.108  0.0000E+00  0.0000E+00  0.0000E+00  0.0000E+00  0.0000E+00  0.0000E+00  0.0000E+00  0.0000E+00  0.0000E+00
    -11.021  0.0000E+00  0.0000E+00  0.0000E+00  0.0000E+00  0.0000E+00  0.0000E+00  0.0000E+00  0.0000E+00  0.0000E+00
    -10.933  0.0000E+00  0.0000E+00  0.0000E+00  0.0000E+00  0.0000E+00  0.0000E+00  0.0000E+00  0.0000E+00  0.0000E+00
    -10.846  0.0000E+00  0.0000E+00  0.0000E+00  0.0000E+00  0.0000E+00  0.0000E+00  0.0000E+00  0.0000E+00  0.0000E+00
    -10.758  0.0000E+00  0.0000E+00  0.0000E+00  0.0000E+00  0.0000E+00  0.0000E+00  0.0000E+00  0.0000E+00  0.0000E+00
    -10.671  0.0000E+00  0.0000E+00  0.0000E+00  0.0000E+00  0.0000E+00  0.0000E+00  0.0000E+00  0.0000E+00  0.0000E+00
    -10.583  0.0000E+00  0.0000E+00  0.0000E+00  0.0000E+00  0.0000E+00  0.0000E+00  0.0000E+00  0.0000E+00  0.0000E+00
    -10.496  0.0000E+00  0.0000E+00  0.0000E+00  0.0000E+00  0.0000E+00  0.0000E+00  0.0000E+00  0.0000E+00  0.0000E+00
    -10.408  0.0000E+00  0.0000E+00  0.0000E+00  0.0000E+00  0.0000E+00  0.0000E+00  0.0000E+00  0.0000E+00  0.0000E+00
    -10.320  0.0000E+00  0.0000E+00  0.0000E+00  0.0000E+00  0.0000E+00  0.0000E+00  0.0000E+00  0.0000E+00  0.0000E+00
    -10.233  0.0000E+00  0.0000E+00  0.0000E+00  0.0000E+00  0.0000E+00  0.0000E+00  0.0000E+00  0.0000E+00  0.0000E+00
    -10.145  0.0000E+00  0.0000E+00  0.0000E+00  0.0000E+00  0.0000E+00  0.0000E+00  0.0000E+00  0.0000E+00  0.0000E+00
    -10.058  0.0000E+00  0.0000E+00  0.0000E+00  0.0000E+00  0.0000E+00  0.0000E+00  0.0000E+00  0.0000E+00  0.0000E+00
     -9.970  0.0000E+00  0.0000E+00  0.0000E+00  0.0000E+00  0.0000E+00  0.0000E+00  0.0000E+00  0.0000E+00  0.0000E+00
     -9.883  0.0000E+00  0.0000E+00  0.0000E+00  0.0000E+00  0.0000E+00  0.0000E+00  0.0000E+00  0.0000E+00  0.0000E+00
     -9.795  0.0000E+00  0.0000E+00  0.0000E+00  0.0000E+00  0.0000E+00  0.0000E+00  0.0000E+00  0.0000E+00  0.0000E+00
     -9.708  0.0000E+00  0.0000E+00  0.0000E+00  0.0000E+00  0.0000E+00  0.0000E+00  0.0000E+00  0.0000E+00  0.0000E+00
     -9.620  0.0000E+00  0.0000E+00  0.0000E+00  0.0000E+00  0.0000E+00  0.0000E+00  0.0000E+00  0.0000E+00  0.0000E+00
     -9.532  0.0000E+00  0.0000E+00  0.0000E+00  0.0000E+00  0.0000E+00  0.0000E+00  0.0000E+00  0.0000E+00  0.0000E+00
     -9.445  0.0000E+00  0.0000E+00  0.0000E+00  0.0000E+00  0.0000E+00  0.0000E+00  0.0000E+00  0.0000E+00  0.0000E+00
     -9.357  0.0000E+00  0.0000E+00  0.0000E+00  0.0000E+00  0.0000E+00  0.0000E+00  0.0000E+00  0.0000E+00  0.0000E+00
     -9.270  0.0000E+00  0.0000E+00  0.0000E+00  0.0000E+00  0.0000E+00  0.0000E+00  0.0000E+00  0.0000E+00  0.0000E+00
     -9.182  0.0000E+00  0.0000E+00  0.0000E+00  0.0000E+00  0.0000E+00  0.0000E+00  0.0000E+00  0.0000E+00  0.0000E+00
     -9.095  0.0000E+00  0.0000E+00  0.0000E+00  0.0000E+00  0.0000E+00  0.0000E+00  0.0000E+00  0.0000E+00  0.0000E+00
     -9.007  0.0000E+00  0.0000E+00  0.0000E+00  0.0000E+00  0.0000E+00  0.0000E+00  0.0000E+00  0.0000E+00  0.0000E+00
     -8.919  0.0000E+00  0.0000E+00  0.0000E+00  0.0000E+00  0.0000E+00  0.0000E+00  0.0000E+00  0.0000E+00  0.0000E+00
     -8.832  0.0000E+00  0.0000E+00  0.0000E+00  0.0000E+00  0.0000E+00  0.0000E+00  0.0000E+00  0.0000E+00  0.0000E+00
     -8.744  0.0000E+00  0.0000E+00  0.0000E+00  0.0000E+00  0.0000E+00  0.0000E+00  0.0000E+00  0.0000E+00  0.0000E+00
     -8.657  0.0000E+00  0.0000E+00  0.0000E+00  0.0000E+00  0.0000E+00  0.0000E+00  0.0000E+00  0.0000E+00  0.0000E+00
     -8.569  0.0000E+00  0.0000E+00  0.0000E+00  0.0000E+00  0.0000E+00  0.0000E+00  0.0000E+00  0.0000E+00  0.0000E+00
     -8.482  0.0000E+00  0.0000E+00  0.0000E+00  0.0000E+00  0.0000E+00  0.0000E+00  0.0000E+00  0.0000E+00  0.0000E+00
     -8.394  0.0000E+00  0.0000E+00  0.0000E+00  0.0000E+00  0.0000E+00  0.0000E+00  0.0000E+00  0.0000E+00  0.0000E+00
     -8.307  0.0000E+00  0.0000E+00  0.0000E+00  0.0000E+00  0.0000E+00  0.0000E+00  0.0000E+00  0.0000E+00  0.0000E+00
     -8.219  0.0000E+00  0.0000E+00  0.0000E+00  0.0000E+00  0.0000E+00  0.0000E+00  0.0000E+00  0.0000E+00  0.0000E+00
     -8.131  0.0000E+00  0.0000E+00  0.0000E+00  0.0000E+00  0.0000E+00  0.0000E+00  0.0000E+00  0.0000E+00  0.0000E+00
     -8.044  0.0000E+00  0.0000E+00  0.0000E+00  0.0000E+00  0.0000E+00  0.0000E+00  0.0000E+00  0.0000E+00  0.0000E+00
     -7.956  0.0000E+00  0.0000E+00  0.0000E+00  0.0000E+00  0.0000E+00  0.0000E+00  0.0000E+00  0.0000E+00  0.0000E+00
     -7.869  0.0000E+00  0.0000E+00  0.0000E+00  0.0000E+00  0.0000E+00  0.0000E+00  0.0000E+00  0.0000E+00  0.0000E+00
     -7.781  0.0000E+00  0.0000E+00  0.0000E+00  0.0000E+00  0.0000E+00  0.0000E+00  0.0000E+00  0.0000E+00  0.0000E+00
     -7.694  0.0000E+00  0.0000E+00  0.0000E+00  0.0000E+00  0.0000E+00  0.0000E+00  0.0000E+00  0.0000E+00  0.0000E+00
     -7.606  0.0000E+00  0.0000E+00  0.0000E+00  0.0000E+00  0.0000E+00  0.0000E+00  0.0000E+00  0.0000E+00  0.0000E+00
     -7.519  0.0000E+00  0.0000E+00  0.0000E+00  0.0000E+00  0.0000E+00  0.0000E+00  0.0000E+00  0.0000E+00  0.0000E+00
     -7.431  0.0000E+00  0.0000E+00  0.0000E+00  0.0000E+00  0.0000E+00  0.0000E+00  0.0000E+00  0.0000E+00  0.0000E+00
     -7.343  0.0000E+00  0.0000E+00  0.0000E+00  0.0000E+00  0.0000E+00  0.0000E+00  0.0000E+00  0.0000E+00  0.0000E+00
     -7.256  0.0000E+00  0.0000E+00  0.0000E+00  0.0000E+00  0.0000E+00  0.0000E+00  0.0000E+00  0.0000E+00  0.0000E+00
     -7.168  0.0000E+00  0.0000E+00  0.0000E+00  0.0000E+00  0.0000E+00  0.0000E+00  0.0000E+00  0.0000E+00  0.0000E+00
     -7.081  0.0000E+00  0.0000E+00  0.0000E+00  0.0000E+00  0.0000E+00  0.0000E+00  0.0000E+00  0.0000E+00  0.0000E+00
     -6.993  0.0000E+00  0.0000E+00  0.0000E+00  0.0000E+00  0.0000E+00  0.0000E+00  0.0000E+00  0.0000E+00  0.0000E+00
     -6.906  0.0000E+00  0.0000E+00  0.0000E+00  0.0000E+00  0.0000E+00  0.0000E+00  0.0000E+00  0.0000E+00  0.0000E+00
     -6.818  0.0000E+00  0.0000E+00  0.0000E+00  0.0000E+00  0.0000E+00  0.0000E+00  0.0000E+00  0.0000E+00  0.0000E+00
     -6.730  0.0000E+00  0.0000E+00  0.0000E+00  0.0000E+00  0.0000E+00  0.0000E+00  0.0000E+00  0.0000E+00  0.0000E+00
     -6.643  0.0000E+00  0.0000E+00  0.0000E+00  0.0000E+00  0.0000E+00  0.0000E+00  0.0000E+00  0.0000E+00  0.0000E+00
     -6.555  0.0000E+00  0.0000E+00  0.0000E+00  0.0000E+00  0.0000E+00  0.0000E+00  0.0000E+00  0.0000E+00  0.0000E+00
     -6.468  0.0000E+00  0.0000E+00  0.0000E+00  0.0000E+00  0.0000E+00  0.0000E+00  0.0000E+00  0.0000E+00  0.0000E+00
     -6.380  0.0000E+00  0.0000E+00  0.0000E+00  0.0000E+00  0.0000E+00  0.0000E+00  0.0000E+00  0.0000E+00  0.0000E+00
     -6.293  0.0000E+00  0.0000E+00  0.0000E+00  0.0000E+00  0.0000E+00  0.0000E+00  0.0000E+00  0.0000E+00  0.0000E+00
     -6.205  0.0000E+00  0.0000E+00  0.0000E+00  0.0000E+00  0.0000E+00  0.0000E+00  0.0000E+00  0.0000E+00  0.0000E+00
     -6.118  0.8361E-10  0.1717E-11  0.1717E-11  0.1717E-11  0.1137E-12  0.1137E-12  0.2671E-13  0.1137E-12  0.2671E-13
     -6.030  0.1952E-04  0.3940E-06  0.3940E-06  0.3940E-06  0.2708E-07  0.2708E-07  0.6486E-08  0.2708E-07  0.6486E-08
     -5.942  0.1823E-01  0.3426E-03  0.3426E-03  0.3426E-03  0.2700E-04  0.2700E-04  0.6835E-05  0.2700E-04  0.6835E-05
     -5.855  0.2602E+00  0.3716E-02  0.3716E-02  0.3716E-02  0.4626E-03  0.4626E-03  0.1341E-03  0.4626E-03  0.1341E-03
     -5.767  0.9111E+00  0.7390E-02  0.7390E-02  0.7390E-02  0.1734E-02  0.1734E-02  0.5947E-03  0.1734E-02  0.5947E-03
     -5.680  0.1772E+01  0.6657E-02  0.6657E-02  0.6657E-02  0.1531E-02  0.1531E-02  0.5763E-03  0.1531E-02  0.5763E-03
     -5.592  0.1173E+01  0.5623E-02  0.5623E-02  0.5623E-02  0.1173E-02  0.1173E-02  0.4181E-03  0.1173E-02  0.4181E-03
     -5.505  0.1183E+01  0.8115E-02  0.8115E-02  0.8115E-02  0.1608E-02  0.1608E-02  0.5906E-03  0.1608E-02  0.5906E-03
     -5.417  0.1079E+01  0.7257E-02  0.7257E-02  0.7257E-02  0.1451E-02  0.1451E-02  0.5718E-03  0.1451E-02  0.5718E-03
     -5.330  0.1140E+01  0.7428E-02  0.7428E-02  0.7428E-02  0.1707E-02  0.1707E-02  0.6152E-03  0.1707E-02  0.6152E-03
     -5.242  0.1216E+01  0.8453E-02  0.8453E-02  0.8453E-02  0.1865E-02  0.1865E-02  0.5531E-03  0.1865E-02  0.5531E-03
     -5.154  0.7699E+00  0.9291E-02  0.9291E-02  0.9291E-02  0.1833E-02  0.1833E-02  0.4377E-03  0.1833E-02  0.4377E-03
     -5.067  0.1354E+01  0.1246E-01  0.1246E-01  0.1246E-01  0.2700E-02  0.2700E-02  0.4207E-03  0.2700E-02  0.4207E-03
     -4.979  0.6945E+00  0.9243E-02  0.9243E-02  0.9243E-02  0.2447E-02  0.2447E-02  0.3690E-03  0.2447E-02  0.3690E-03
     -4.892  0.5050E-01  0.7437E-03  0.7437E-03  0.7437E-03  0.1927E-03  0.1927E-03  0.3157E-04  0.1927E-03  0.3157E-04
     -4.804  0.1176E-02  0.5437E-05  0.5437E-05  0.5437E-05  0.2956E-06  0.2956E-06  0.4739E-07  0.2956E-06  0.4739E-07
     -4.717  0.3356E-01  0.1356E-03  0.1356E-03  0.1356E-03  0.1969E-05  0.1969E-05  0.5842E-06  0.1969E-05  0.5842E-06
     -4.629  0.4733E-01  0.1925E-03  0.1925E-03  0.1925E-03  0.4092E-05  0.4092E-05  0.3095E-05  0.4092E-05  0.3095E-05
     -4.541  0.3699E-01  0.1560E-03  0.1560E-03  0.1560E-03  0.5081E-05  0.5081E-05  0.5913E-05  0.5081E-05  0.5913E-05
     -4.454  0.3646E-01  0.1602E-03  0.1602E-03  0.1602E-03  0.6571E-05  0.6571E-05  0.9010E-05  0.6571E-05  0.9010E-05
     -4.366  0.5472E-01  0.2530E-03  0.2530E-03  0.2530E-03  0.1083E-04  0.1083E-04  0.1826E-04  0.1083E-04  0.1826E-04
     -4.279  0.2095E+00  0.9888E-03  0.9888E-03  0.9888E-03  0.4454E-04  0.4454E-04  0.7860E-04  0.4454E-04  0.7860E-04
     -4.191  0.3583E+00  0.1562E-02  0.1562E-02  0.1562E-02  0.1350E-03  0.1350E-03  0.1578E-03  0.1350E-03  0.1578E-03
     -4.104  0.6847E+00  0.2936E-02  0.2936E-02  0.2936E-02  0.2837E-03  0.2837E-03  0.3159E-03  0.2837E-03  0.3159E-03
     -4.016  0.1001E+01  0.4294E-02  0.4294E-02  0.4294E-02  0.4117E-03  0.4117E-03  0.4821E-03  0.4117E-03  0.4821E-03
     -3.929  0.3063E+00  0.1278E-02  0.1278E-02  0.1278E-02  0.8400E-04  0.8400E-04  0.1404E-03  0.8400E-04  0.1404E-03
     -3.841  0.4683E-01  0.3106E-03  0.3106E-03  0.3106E-03  0.4030E-04  0.4030E-04  0.6646E-05  0.4030E-04  0.6646E-05
     -3.753  0.2449E+00  0.1653E-02  0.1653E-02  0.1653E-02  0.2333E-03  0.2333E-03  0.1900E-04  0.2333E-03  0.1900E-04
     -3.666  0.1846E+00  0.1259E-02  0.1259E-02  0.1259E-02  0.1587E-03  0.1587E-03  0.1665E-04  0.1587E-03  0.1665E-04
     -3.578  0.2531E+00  0.2004E-02  0.2004E-02  0.2004E-02  0.2113E-03  0.2113E-03  0.1997E-04  0.2113E-03  0.1997E-04
     -3.491  0.4000E+00  0.3410E-02  0.3410E-02  0.3410E-02  0.3216E-03  0.3216E-03  0.3171E-04  0.3216E-03  0.3171E-04
     -3.403  0.1717E+00  0.1499E-02  0.1499E-02  0.1499E-02  0.1207E-03  0.1207E-03  0.1696E-04  0.1207E-03  0.1696E-04
     -3.316  0.1049E+00  0.1040E-02  0.1040E-02  0.1040E-02  0.5740E-04  0.5740E-04  0.1153E-04  0.5740E-04  0.1153E-04
     -3.228  0.1326E+00  0.1427E-02  0.1427E-02  0.1427E-02  0.6000E-04  0.6000E-04  0.1443E-04  0.6000E-04  0.1443E-04
     -3.141  0.4563E-01  0.5554E-03  0.5554E-03  0.5554E-03  0.1680E-04  0.1680E-04  0.4097E-05  0.1680E-04  0.4097E-05
     -3.053  0.4403E-01  0.6553E-03  0.6553E-03  0.6553E-03  0.9121E-05  0.9121E-05  0.2259E-05  0.9121E-05  0.2259E-05
     -2.965  0.7356E-01  0.1276E-02  0.1276E-02  0.1276E-02  0.4772E-05  0.4772E-05  0.1215E-05  0.4772E-05  0.1215E-05
     -2.878  0.2268E-01  0.4113E-03  0.4113E-03  0.4113E-03  0.4594E-06  0.4594E-06  0.1183E-06  0.4594E-06  0.1183E-06
     -2.790  0.1336E-03  0.2450E-05  0.2450E-05  0.2450E-05  0.1169E-08  0.1169E-08  0.3023E-09  0.1169E-08  0.3023E-09
     -2.703  0.3594E-08  0.6618E-10  0.6618E-10  0.6618E-10  0.1804E-13  0.1804E-13  0.4667E-14  0.1804E-13  0.4667E-14
     -2.615  0.2801E-15  0.5164E-17  0.5164E-17  0.5164E-17  0.9646E-21  0.9646E-21  0.2496E-21  0.9646E-21  0.2496E-21
     -2.528  0.0000E+00  0.0000E+00  0.0000E+00  0.0000E+00  0.0000E+00  0.0000E+00  0.0000E+00  0.0000E+00  0.0000E+00
     -2.440  0.0000E+00  0.0000E+00  0.0000E+00  0.0000E+00  0.0000E+00  0.0000E+00  0.0000E+00  0.0000E+00  0.0000E+00
     -2.353  0.0000E+00  0.0000E+00  0.0000E+00  0.0000E+00  0.0000E+00  0.0000E+00  0.0000E+00  0.0000E+00  0.0000E+00
     -2.265  0.0000E+00  0.0000E+00  0.0000E+00  0.0000E+00  0.0000E+00  0.0000E+00  0.0000E+00  0.0000E+00  0.0000E+00
     -2.177  0.0000E+00  0.0000E+00  0.0000E+00  0.0000E+00  0.0000E+00  0.0000E+00  0.0000E+00  0.0000E+00  0.0000E+00
     -2.090  0.0000E+00  0.0000E+00  0.0000E+00  0.0000E+00  0.0000E+00  0.0000E+00  0.0000E+00  0.0000E+00  0.0000E+00
     -2.002  0.0000E+00  0.0000E+00  0.0000E+00  0.0000E+00  0.0000E+00  0.0000E+00  0.0000E+00  0.0000E+00  0.0000E+00
     -1.915  0.0000E+00  0.0000E+00  0.0000E+00  0.0000E+00  0.0000E+00  0.0000E+00  0.0000E+00  0.0000E+00  0.0000E+00
     -1.827  0.0000E+00  0.0000E+00  0.0000E+00  0.0000E+00  0.0000E+00  0.0000E+00  0.0000E+00  0.0000E+00  0.0000E+00
     -1.740  0.0000E+00  0.0000E+00  0.0000E+00  0.0000E+00  0.0000E+00  0.0000E+00  0.0000E+00  0.0000E+00  0.0000E+00
     -1.652  0.0000E+00  0.0000E+00  0.0000E+00  0.0000E+00  0.0000E+00  0.0000E+00  0.0000E+00  0.0000E+00  0.0000E+00
     -1.564  0.0000E+00  0.0000E+00  0.0000E+00  0.0000E+00  0.0000E+00  0.0000E+00  0.0000E+00  0.0000E+00  0.0000E+00