 running   64 mpi-ranks, on    1 nodes
 distrk:  each k-point on   64 cores,    1 groups
 distr:  one band on    8 cores,    8 groups
 vasp.6.4.0 14Feb23 (build Apr 20 2023 11:28:40) complex                        
  
 POSCAR found type information on POSCAR BiO 
 POSCAR found :  2 types and      80 ions
 scaLAPACK will be used
 WARNING: PSMAXN for non-local potential too small
 LDA part: xc-table for Pade appr. of Perdew
 WARNING: stress and forces are not correct
 POSCAR, INCAR and KPOINTS ok, starting setup
 FFT: planning ... GRIDC
 FFT: planning ... GRID_SOFT
 FFT: planning ... GRID
 WAVECAR not read
 charge-density read from file: unknown                                 
 entering main loop
       N       E                     dE             d eps       ncg     rms          rms(c)
DAV:   1     0.309924360109E+04    0.30992E+04   -0.21854E+05 51168   0.163E+03
DAV:   2    -0.620113199375E+02   -0.31613E+04   -0.30278E+04 64048   0.284E+02
DAV:   3    -0.440772371676E+03   -0.37876E+03   -0.37123E+03 59416   0.105E+02
DAV:   4    -0.457806671392E+03   -0.17034E+02   -0.16914E+02 71640   0.202E+01
DAV:   5    -0.458278105304E+03   -0.47143E+00   -0.47057E+00 63600   0.343E+00
RMM:   6    -0.458291747385E+03   -0.13642E-01   -0.13642E-01 53754   0.641E-01
RMM:   7    -0.458299434842E+03   -0.76875E-02   -0.76670E-02 78179   0.263E-01
RMM:   8    -0.458300082306E+03   -0.64746E-03   -0.71030E-03 64976   0.800E-02
RMM:   9    -0.458300191899E+03   -0.10959E-03   -0.11538E-03 77095   0.276E-02
RMM:  10    -0.458300207849E+03   -0.15949E-04   -0.16955E-04 55062   0.101E-02
RMM:  11    -0.458300210505E+03   -0.26560E-05   -0.28398E-05 52820   0.372E-03
RMM:  12    -0.458300211034E+03   -0.52911E-06   -0.55909E-06 41799   0.168E-03
   1 F= -.47782741E+03 E0= -.47782741E+03  d E =-.201004E-12
