  52  52   1   0
  0.1429424E+02  0.6599879E-09  0.6599879E-09  0.1706445E-08  0.5000000E-15
  1.000000000000000E-004
  CAR 
 unknown system                          
     13.02735035    -22.72651842  301      2.43526673      1.00000000
    -22.727  0.0000E+00  0.0000E+00
    -22.607  0.0000E+00  0.0000E+00
    -22.488  0.0000E+00  0.0000E+00
    -22.369  0.0000E+00  0.0000E+00
    -22.250  0.0000E+00  0.0000E+00
    -22.131  0.0000E+00  0.0000E+00
    -22.011  0.0000E+00  0.0000E+00
    -21.892  0.0000E+00  0.0000E+00
    -21.773  0.0000E+00  0.0000E+00
    -21.654  0.0000E+00  0.0000E+00
    -21.535  0.0000E+00  0.0000E+00
    -21.416  0.0000E+00  0.0000E+00
    -21.296  0.3691E-07  0.4399E-08
    -21.177  0.6780E-01  0.8080E-02
    -21.058  0.2507E+02  0.2996E+01
    -20.939  0.9727E+02  0.1459E+02
    -20.820  0.1184E+02  0.1600E+02
    -20.700  0.1022E-02  0.1600E+02
    -20.581  0.2664E-11  0.1600E+02
    -20.462  0.0000E+00  0.1600E+02
    -20.343  0.0000E+00  0.1600E+02
    -20.224  0.0000E+00  0.1600E+02
    -20.105  0.0000E+00  0.1600E+02
    -19.985  0.0000E+00  0.1600E+02
    -19.866  0.0000E+00  0.1600E+02
    -19.747  0.0000E+00  0.1600E+02
    -19.628  0.0000E+00  0.1600E+02
    -19.509  0.0000E+00  0.1600E+02
    -19.389  0.0000E+00  0.1600E+02
    -19.270  0.0000E+00  0.1600E+02
    -19.151  0.0000E+00  0.1600E+02
    -19.032  0.0000E+00  0.1600E+02
    -18.913  0.0000E+00  0.1600E+02
    -18.794  0.0000E+00  0.1600E+02
    -18.674  0.0000E+00  0.1600E+02
    -18.555  0.0000E+00  0.1600E+02
    -18.436  0.0000E+00  0.1600E+02
    -18.317  0.0000E+00  0.1600E+02
    -18.198  0.0000E+00  0.1600E+02
    -18.079  0.0000E+00  0.1600E+02
    -17.959  0.0000E+00  0.1600E+02
    -17.840  0.0000E+00  0.1600E+02
    -17.721  0.0000E+00  0.1600E+02
    -17.602  0.0000E+00  0.1600E+02
    -17.483  0.0000E+00  0.1600E+02
    -17.363  0.1047E-08  0.1600E+02
    -17.244  0.1463E-01  0.1600E+02
    -17.125  0.2144E+02  0.1856E+02
    -17.006  0.9107E+02  0.2941E+02
    -16.887  0.5849E+02  0.3638E+02
    -16.768  0.9456E+02  0.4765E+02
    -16.648  0.9196E+02  0.5861E+02
    -16.529  0.4519E+02  0.6400E+02
    -16.410  0.2581E-01  0.6400E+02
    -16.291  0.5935E-09  0.6400E+02
    -16.172  0.0000E+00  0.6400E+02
    -16.052  0.0000E+00  0.6400E+02
    -15.933  0.0000E+00  0.6400E+02
    -15.814  0.0000E+00  0.6400E+02
    -15.695  0.0000E+00  0.6400E+02
    -15.576  0.0000E+00  0.6400E+02
    -15.457  0.0000E+00  0.6400E+02
    -15.337  0.2798E-11  0.6400E+02
    -15.218  0.5866E-03  0.6400E+02
    -15.099  0.6107E+01  0.6473E+02
    -14.980  0.5669E+02  0.7148E+02
    -14.861  0.4326E+01  0.7200E+02
    -14.741  0.1235E-03  0.7200E+02
    -14.622  0.9709E-13  0.7200E+02
    -14.503  0.0000E+00  0.7200E+02
    -14.384  0.0000E+00  0.7200E+02
    -14.265  0.0000E+00  0.7200E+02
    -14.146  0.0000E+00  0.7200E+02
    -14.026  0.0000E+00  0.7200E+02
    -13.907  0.0000E+00  0.7200E+02
    -13.788  0.0000E+00  0.7200E+02
    -13.669  0.0000E+00  0.7200E+02
    -13.550  0.0000E+00  0.7200E+02
    -13.431  0.0000E+00  0.7200E+02
    -13.311  0.0000E+00  0.7200E+02
    -13.192  0.0000E+00  0.7200E+02
    -13.073  0.0000E+00  0.7200E+02
    -12.954  0.0000E+00  0.7200E+02
    -12.835  0.0000E+00  0.7200E+02
    -12.715  0.0000E+00  0.7200E+02
    -12.596  0.0000E+00  0.7200E+02
    -12.477  0.0000E+00  0.7200E+02
    -12.358  0.0000E+00  0.7200E+02
    -12.239  0.0000E+00  0.7200E+02
    -12.120  0.0000E+00  0.7200E+02
    -12.000  0.0000E+00  0.7200E+02
    -11.881  0.0000E+00  0.7200E+02
    -11.762  0.0000E+00  0.7200E+02
    -11.643  0.0000E+00  0.7200E+02
    -11.524  0.0000E+00  0.7200E+02
    -11.404  0.0000E+00  0.7200E+02
    -11.285  0.0000E+00  0.7200E+02
    -11.166  0.0000E+00  0.7200E+02
    -11.047  0.0000E+00  0.7200E+02
    -10.928  0.0000E+00  0.7200E+02
    -10.809  0.0000E+00  0.7200E+02
    -10.689  0.0000E+00  0.7200E+02
    -10.570  0.0000E+00  0.7200E+02
    -10.451  0.0000E+00  0.7200E+02
    -10.332  0.0000E+00  0.7200E+02
    -10.213  0.0000E+00  0.7200E+02
    -10.093  0.0000E+00  0.7200E+02
     -9.974  0.0000E+00  0.7200E+02
     -9.855  0.0000E+00  0.7200E+02
     -9.736  0.0000E+00  0.7200E+02
     -9.617  0.0000E+00  0.7200E+02
     -9.498  0.0000E+00  0.7200E+02
     -9.378  0.0000E+00  0.7200E+02
     -9.259  0.0000E+00  0.7200E+02
     -9.140  0.0000E+00  0.7200E+02
     -9.021  0.0000E+00  0.7200E+02
     -8.902  0.0000E+00  0.7200E+02
     -8.783  0.0000E+00  0.7200E+02
     -8.663  0.0000E+00  0.7200E+02
     -8.544  0.1543E-06  0.7200E+02
     -8.425  0.5266E-01  0.7201E+02
     -8.306  0.3728E+01  0.7245E+02
     -8.187  0.6226E+01  0.7319E+02
     -8.067  0.8002E+01  0.7415E+02
     -7.948  0.1336E+02  0.7574E+02
     -7.829  0.1454E+02  0.7747E+02
     -7.710  0.1433E+02  0.7918E+02
     -7.591  0.1146E+02  0.8055E+02
     -7.472  0.2229E+02  0.8320E+02
     -7.352  0.3257E+02  0.8708E+02
     -7.233  0.7670E+01  0.8800E+02
     -7.114  0.3485E+00  0.8804E+02
     -6.995  0.8572E+01  0.8906E+02
     -6.876  0.1440E+02  0.9078E+02
     -6.756  0.1382E+02  0.9242E+02
     -6.637  0.1116E+02  0.9375E+02
     -6.518  0.1162E+02  0.9514E+02
     -6.399  0.5471E+01  0.9579E+02
     -6.280  0.1729E+01  0.9600E+02
     -6.161  0.2272E-01  0.9600E+02
     -6.041  0.3087E-07  0.9600E+02
     -5.922  0.0000E+00  0.9600E+02
     -5.803  0.2789E-16  0.9600E+02
     -5.684  0.2493E-06  0.9600E+02
     -5.565  0.5600E-01  0.9601E+02
     -5.445  0.1950E+01  0.9624E+02
     -5.326  0.3152E+01  0.9661E+02
     -5.207  0.7084E+01  0.9746E+02
     -5.088  0.1486E+02  0.9923E+02
     -4.969  0.2159E+02  0.1018E+03
     -4.850  0.2122E+02  0.1043E+03
     -4.730  0.3788E+02  0.1088E+03
     -4.611  0.2972E+02  0.1124E+03
     -4.492  0.1698E+02  0.1144E+03
     -4.373  0.1644E+02  0.1164E+03
     -4.254  0.1989E+02  0.1187E+03
     -4.135  0.1007E+02  0.1199E+03
     -4.015  0.1711E+01  0.1201E+03
     -3.896  0.2790E+02  0.1235E+03
     -3.777  0.5105E+02  0.1296E+03
     -3.658  0.5176E+02  0.1357E+03
     -3.539  0.4951E+02  0.1416E+03
     -3.419  0.1887E+02  0.1439E+03
     -3.300  0.3586E+01  0.1443E+03
     -3.181  0.1732E+02  0.1464E+03
     -3.062  0.1694E+02  0.1484E+03
     -2.943  0.2062E+02  0.1508E+03
     -2.824  0.6009E+01  0.1516E+03
     -2.704  0.3311E+01  0.1520E+03
     -2.585  0.4150E+00  0.1520E+03
     -2.466  0.6051E-04  0.1520E+03
     -2.347  0.3033E-12  0.1520E+03
     -2.228  0.3521E-04  0.1520E+03
     -2.108  0.1107E+01  0.1521E+03
     -1.989  0.3024E+02  0.1557E+03
     -1.870  0.2843E+02  0.1591E+03
     -1.751  0.7864E+01  0.1601E+03
     -1.632  0.1872E+02  0.1623E+03
     -1.513  0.2677E+02  0.1655E+03
     -1.393  0.3490E+02  0.1696E+03
     -1.274  0.2973E+02  0.1732E+03
     -1.155  0.2441E+02  0.1761E+03
     -1.036  0.3158E+02  0.1799E+03
     -0.917  0.4771E+02  0.1855E+03
     -0.797  0.5570E+02  0.1922E+03
     -0.678  0.4445E+02  0.1975E+03
     -0.559  0.4150E+02  0.2024E+03
     -0.440  0.3944E+02  0.2071E+03
     -0.321  0.4547E+02  0.2125E+03
     -0.202  0.5588E+02  0.2192E+03
     -0.082  0.3635E+02  0.2235E+03
      0.037  0.7959E+01  0.2245E+03
      0.156  0.3250E+01  0.2249E+03
      0.275  0.1353E+02  0.2265E+03
      0.394  0.2601E+02  0.2296E+03
      0.513  0.2103E+02  0.2321E+03
      0.633  0.3834E+02  0.2367E+03
      0.752  0.3626E+02  0.2410E+03
      0.871  0.7031E+02  0.2494E+03
      0.990  0.5313E+02  0.2557E+03
      1.109  0.2377E+02  0.2585E+03
      1.229  0.5303E+02  0.2649E+03
      1.348  0.5659E+02  0.2716E+03
      1.467  0.5552E+02  0.2782E+03
      1.586  0.3799E+02  0.2827E+03
      1.705  0.4029E+02  0.2875E+03
      1.824  0.6068E+02  0.2948E+03
      1.944  0.4819E+02  0.3005E+03
      2.063  0.2274E+02  0.3032E+03
      2.182  0.5030E+01  0.3038E+03
      2.301  0.1470E+01  0.3040E+03
      2.420  0.5207E-02  0.3040E+03
      2.540  0.1131E-08  0.3040E+03
      2.659  0.0000E+00  0.3040E+03
      2.778  0.0000E+00  0.3040E+03
      2.897  0.0000E+00  0.3040E+03
      3.016  0.0000E+00  0.3040E+03
      3.135  0.0000E+00  0.3040E+03
      3.255  0.0000E+00  0.3040E+03
      3.374  0.0000E+00  0.3040E+03
      3.493  0.0000E+00  0.3040E+03
      3.612  0.0000E+00  0.3040E+03
      3.731  0.0000E+00  0.3040E+03
      3.851  0.0000E+00  0.3040E+03
      3.970  0.0000E+00  0.3040E+03
      4.089  0.0000E+00  0.3040E+03
      4.208  0.0000E+00  0.3040E+03
      4.327  0.0000E+00  0.3040E+03
      4.446  0.0000E+00  0.3040E+03
      4.566  0.0000E+00  0.3040E+03
      4.685  0.0000E+00  0.3040E+03
      4.804  0.0000E+00  0.3040E+03
      4.923  0.0000E+00  0.3040E+03
      5.042  0.0000E+00  0.3040E+03
      5.161  0.0000E+00  0.3040E+03
      5.281  0.0000E+00  0.3040E+03
      5.400  0.0000E+00  0.3040E+03
      5.519  0.0000E+00  0.3040E+03
      5.638  0.0000E+00  0.3040E+03
      5.757  0.0000E+00  0.3040E+03
      5.877  0.0000E+00  0.3040E+03
      5.996  0.0000E+00  0.3040E+03
      6.115  0.3107E-13  0.3040E+03
      6.234  0.3459E-04  0.3040E+03
      6.353  0.1252E+01  0.3041E+03
      6.472  0.1583E+02  0.3060E+03
      6.592  0.1450E+02  0.3078E+03
      6.711  0.1362E+02  0.3094E+03
      6.830  0.1095E+02  0.3107E+03
      6.949  0.3341E+02  0.3147E+03
      7.068  0.1856E+02  0.3169E+03
      7.188  0.1323E+02  0.3185E+03
      7.307  0.3849E+02  0.3231E+03
      7.426  0.2664E+02  0.3262E+03
      7.545  0.3132E+02  0.3300E+03
      7.664  0.2363E+02  0.3328E+03
      7.783  0.1469E+02  0.3345E+03
      7.903  0.2348E+02  0.3373E+03
      8.022  0.1930E+02  0.3396E+03
      8.141  0.2368E+02  0.3424E+03
      8.260  0.1291E+02  0.3440E+03
      8.379  0.1281E+00  0.3440E+03
      8.499  0.6000E-06  0.3440E+03
      8.618  0.0000E+00  0.3440E+03
      8.737  0.0000E+00  0.3440E+03
      8.856  0.0000E+00  0.3440E+03
      8.975  0.8815E-07  0.3440E+03
      9.094  0.6546E-01  0.3440E+03
      9.214  0.5621E+01  0.3447E+03
      9.333  0.1429E+02  0.3464E+03
      9.452  0.2279E+02  0.3491E+03
      9.571  0.1673E+02  0.3511E+03
      9.690  0.6929E+01  0.3519E+03
      9.810  0.7653E+00  0.3520E+03
      9.929  0.1055E+01  0.3521E+03
     10.048  0.7719E+00  0.3522E+03
     10.167  0.1760E+01  0.3524E+03
     10.286  0.3165E+01  0.3528E+03
     10.405  0.1141E+02  0.3542E+03
     10.525  0.1310E+02  0.3557E+03
     10.644  0.2103E+02  0.3582E+03
     10.763  0.2552E+02  0.3613E+03
     10.882  0.1906E+02  0.3636E+03
     11.001  0.1602E+02  0.3655E+03
     11.120  0.1186E+02  0.3669E+03
     11.240  0.6577E+01  0.3677E+03
     11.359  0.2635E+01  0.3680E+03
     11.478  0.2266E+00  0.3680E+03
     11.597  0.1622E-02  0.3680E+03
     11.716  0.1742E-08  0.3680E+03
     11.836  0.0000E+00  0.3680E+03
     11.955  0.0000E+00  0.3680E+03
     12.074  0.0000E+00  0.3680E+03
     12.193  0.0000E+00  0.3680E+03
     12.312  0.0000E+00  0.3680E+03
     12.431  0.0000E+00  0.3680E+03
     12.551  0.0000E+00  0.3680E+03
     12.670  0.0000E+00  0.3680E+03
     12.789  0.0000E+00  0.3680E+03
     12.908  0.0000E+00  0.3680E+03
     13.027  0.0000E+00  0.3680E+03
     13.02735035    -22.72651842  301      2.43526673      1.00000000
    -22.727  0.0000E+00  0.0000E+00  0.0000E+00  0.0000E+00  0.0000E+00  0.0000E+00  0.0000E+00  0.0000E+00  0.0000E+00
    -22.607  0.0000E+00  0.0000E+00  0.0000E+00  0.0000E+00  0.0000E+00  0.0000E+00  0.0000E+00  0.0000E+00  0.0000E+00
    -22.488  0.0000E+00  0.0000E+00  0.0000E+00  0.0000E+00  0.0000E+00  0.0000E+00  0.0000E+00  0.0000E+00  0.0000E+00
    -22.369  0.0000E+00  0.0000E+00  0.0000E+00  0.0000E+00  0.0000E+00  0.0000E+00  0.0000E+00  0.0000E+00  0.0000E+00
    -22.250  0.0000E+00  0.0000E+00  0.0000E+00  0.0000E+00  0.0000E+00  0.0000E+00  0.0000E+00  0.0000E+00  0.0000E+00
    -22.131  0.0000E+00  0.0000E+00  0.0000E+00  0.0000E+00  0.0000E+00  0.0000E+00  0.0000E+00  0.0000E+00  0.0000E+00
    -22.011  0.0000E+00  0.0000E+00  0.0000E+00  0.0000E+00  0.0000E+00  0.0000E+00  0.0000E+00  0.0000E+00  0.0000E+00
    -21.892  0.0000E+00  0.0000E+00  0.0000E+00  0.0000E+00  0.0000E+00  0.0000E+00  0.0000E+00  0.0000E+00  0.0000E+00
    -21.773  0.0000E+00  0.0000E+00  0.0000E+00  0.0000E+00  0.0000E+00  0.0000E+00  0.0000E+00  0.0000E+00  0.0000E+00
    -21.654  0.0000E+00  0.0000E+00  0.0000E+00  0.0000E+00  0.0000E+00  0.0000E+00  0.0000E+00  0.0000E+00  0.0000E+00
    -21.535  0.0000E+00  0.0000E+00  0.0000E+00  0.0000E+00  0.0000E+00  0.0000E+00  0.0000E+00  0.0000E+00  0.0000E+00
    -21.416  0.0000E+00  0.0000E+00  0.0000E+00  0.0000E+00  0.0000E+00  0.0000E+00  0.0000E+00  0.0000E+00  0.0000E+00
    -21.296  0.1280E-10  0.1560E-12  0.5753E-12  0.8242E-12  0.2844E-14  0.9624E-13  0.7019E-13  0.1422E-14  0.3165E-13
    -21.177  0.2184E-04  0.4437E-06  0.1111E-05  0.1731E-05  0.8533E-08  0.1683E-06  0.1221E-06  0.6562E-08  0.6544E-07
    -21.058  0.4964E-02  0.4148E-03  0.4386E-03  0.1118E-02  0.8116E-05  0.5235E-04  0.3069E-04  0.1068E-04  0.4214E-04
    -20.939  0.7128E-02  0.1835E-02  0.1303E-02  0.4116E-02  0.3057E-04  0.2444E-03  0.1264E-03  0.4110E-04  0.5808E-03
    -20.820  0.2235E-03  0.1736E-03  0.1010E-03  0.3072E-03  0.2437E-05  0.3730E-04  0.2133E-04  0.3376E-05  0.1276E-03
    -20.700  0.1543E-07  0.1294E-07  0.7914E-08  0.1919E-07  0.1894E-09  0.3348E-08  0.2052E-08  0.2770E-09  0.1261E-07
    -20.581  0.3892E-16  0.3243E-16  0.2056E-16  0.4496E-16  0.4858E-18  0.8807E-17  0.5479E-17  0.7056E-18  0.3387E-16
    -20.462  0.0000E+00  0.0000E+00  0.0000E+00  0.0000E+00  0.0000E+00  0.0000E+00  0.0000E+00  0.0000E+00  0.0000E+00
    -20.343  0.0000E+00  0.0000E+00  0.0000E+00  0.0000E+00  0.0000E+00  0.0000E+00  0.0000E+00  0.0000E+00  0.0000E+00
    -20.224  0.0000E+00  0.0000E+00  0.0000E+00  0.0000E+00  0.0000E+00  0.0000E+00  0.0000E+00  0.0000E+00  0.0000E+00
    -20.105  0.0000E+00  0.0000E+00  0.0000E+00  0.0000E+00  0.0000E+00  0.0000E+00  0.0000E+00  0.0000E+00  0.0000E+00
    -19.985  0.0000E+00  0.0000E+00  0.0000E+00  0.0000E+00  0.0000E+00  0.0000E+00  0.0000E+00  0.0000E+00  0.0000E+00
    -19.866  0.0000E+00  0.0000E+00  0.0000E+00  0.0000E+00  0.0000E+00  0.0000E+00  0.0000E+00  0.0000E+00  0.0000E+00
    -19.747  0.0000E+00  0.0000E+00  0.0000E+00  0.0000E+00  0.0000E+00  0.0000E+00  0.0000E+00  0.0000E+00  0.0000E+00
    -19.628  0.0000E+00  0.0000E+00  0.0000E+00  0.0000E+00  0.0000E+00  0.0000E+00  0.0000E+00  0.0000E+00  0.0000E+00
    -19.509  0.0000E+00  0.0000E+00  0.0000E+00  0.0000E+00  0.0000E+00  0.0000E+00  0.0000E+00  0.0000E+00  0.0000E+00
    -19.389  0.0000E+00  0.0000E+00  0.0000E+00  0.0000E+00  0.0000E+00  0.0000E+00  0.0000E+00  0.0000E+00  0.0000E+00
    -19.270  0.0000E+00  0.0000E+00  0.0000E+00  0.0000E+00  0.0000E+00  0.0000E+00  0.0000E+00  0.0000E+00  0.0000E+00
    -19.151  0.0000E+00  0.0000E+00  0.0000E+00  0.0000E+00  0.0000E+00  0.0000E+00  0.0000E+00  0.0000E+00  0.0000E+00
    -19.032  0.0000E+00  0.0000E+00  0.0000E+00  0.0000E+00  0.0000E+00  0.0000E+00  0.0000E+00  0.0000E+00  0.0000E+00
    -18.913  0.0000E+00  0.0000E+00  0.0000E+00  0.0000E+00  0.0000E+00  0.0000E+00  0.0000E+00  0.0000E+00  0.0000E+00
    -18.794  0.0000E+00  0.0000E+00  0.0000E+00  0.0000E+00  0.0000E+00  0.0000E+00  0.0000E+00  0.0000E+00  0.0000E+00
    -18.674  0.0000E+00  0.0000E+00  0.0000E+00  0.0000E+00  0.0000E+00  0.0000E+00  0.0000E+00  0.0000E+00  0.0000E+00
    -18.555  0.0000E+00  0.0000E+00  0.0000E+00  0.0000E+00  0.0000E+00  0.0000E+00  0.0000E+00  0.0000E+00  0.0000E+00
    -18.436  0.0000E+00  0.0000E+00  0.0000E+00  0.0000E+00  0.0000E+00  0.0000E+00  0.0000E+00  0.0000E+00  0.0000E+00
    -18.317  0.0000E+00  0.0000E+00  0.0000E+00  0.0000E+00  0.0000E+00  0.0000E+00  0.0000E+00  0.0000E+00  0.0000E+00
    -18.198  0.0000E+00  0.0000E+00  0.0000E+00  0.0000E+00  0.0000E+00  0.0000E+00  0.0000E+00  0.0000E+00  0.0000E+00
    -18.079  0.0000E+00  0.0000E+00  0.0000E+00  0.0000E+00  0.0000E+00  0.0000E+00  0.0000E+00  0.0000E+00  0.0000E+00
    -17.959  0.0000E+00  0.0000E+00  0.0000E+00  0.0000E+00  0.0000E+00  0.0000E+00  0.0000E+00  0.0000E+00  0.0000E+00
    -17.840  0.0000E+00  0.0000E+00  0.0000E+00  0.0000E+00  0.0000E+00  0.0000E+00  0.0000E+00  0.0000E+00  0.0000E+00
    -17.721  0.0000E+00  0.0000E+00  0.0000E+00  0.0000E+00  0.0000E+00  0.0000E+00  0.0000E+00  0.0000E+00  0.0000E+00
    -17.602  0.0000E+00  0.0000E+00  0.0000E+00  0.0000E+00  0.0000E+00  0.0000E+00  0.0000E+00  0.0000E+00  0.0000E+00
    -17.483  0.0000E+00  0.0000E+00  0.0000E+00  0.0000E+00  0.0000E+00  0.0000E+00  0.0000E+00  0.0000E+00  0.0000E+00
    -17.363  0.1202E-11  0.1183E-12  0.6611E-13  0.1695E-12  0.1636E-14  0.1715E-13  0.8526E-14  0.2835E-15  0.1332E-14
    -17.244  0.1734E-04  0.1459E-05  0.1027E-05  0.2495E-05  0.2223E-07  0.2175E-06  0.1157E-06  0.4048E-08  0.2936E-07
    -17.125  0.2761E-01  0.1442E-02  0.2005E-02  0.3974E-02  0.3207E-04  0.2280E-03  0.1460E-03  0.6669E-05  0.8923E-04
    -17.006  0.1064E+00  0.4897E-02  0.8122E-02  0.2214E-01  0.1367E-03  0.6998E-03  0.5455E-03  0.4963E-04  0.5391E-03
    -16.887  0.1709E-01  0.6567E-02  0.4332E-02  0.1059E-01  0.1024E-03  0.5126E-03  0.2510E-03  0.7289E-04  0.1367E-02
    -16.768  0.4428E-02  0.9643E-02  0.4491E-02  0.1135E-01  0.1246E-03  0.1095E-02  0.5361E-03  0.8490E-04  0.3481E-02
    -16.648  0.4856E-02  0.3750E-02  0.7187E-03  0.1739E-02  0.2190E-03  0.3028E-03  0.8475E-04  0.9945E-04  0.1418E-02
    -16.529  0.1700E-02  0.1277E-02  0.1900E-03  0.7195E-03  0.1631E-03  0.1150E-03  0.3046E-04  0.7007E-04  0.6153E-03
    -16.410  0.8618E-06  0.6032E-06  0.9507E-07  0.5090E-06  0.1045E-06  0.4956E-07  0.1516E-07  0.4823E-07  0.3035E-06
    -16.291  0.1999E-13  0.1229E-13  0.2203E-14  0.1342E-13  0.2385E-14  0.9104E-15  0.3282E-15  0.1208E-14  0.6578E-14
    -16.172  0.0000E+00  0.0000E+00  0.0000E+00  0.0000E+00  0.0000E+00  0.0000E+00  0.0000E+00  0.0000E+00  0.0000E+00
    -16.052  0.0000E+00  0.0000E+00  0.0000E+00  0.0000E+00  0.0000E+00  0.0000E+00  0.0000E+00  0.0000E+00  0.0000E+00
    -15.933  0.0000E+00  0.0000E+00  0.0000E+00  0.0000E+00  0.0000E+00  0.0000E+00  0.0000E+00  0.0000E+00  0.0000E+00
    -15.814  0.0000E+00  0.0000E+00  0.0000E+00  0.0000E+00  0.0000E+00  0.0000E+00  0.0000E+00  0.0000E+00  0.0000E+00
    -15.695  0.0000E+00  0.0000E+00  0.0000E+00  0.0000E+00  0.0000E+00  0.0000E+00  0.0000E+00  0.0000E+00  0.0000E+00
    -15.576  0.0000E+00  0.0000E+00  0.0000E+00  0.0000E+00  0.0000E+00  0.0000E+00  0.0000E+00  0.0000E+00  0.0000E+00
    -15.457  0.0000E+00  0.0000E+00  0.0000E+00  0.0000E+00  0.0000E+00  0.0000E+00  0.0000E+00  0.0000E+00  0.0000E+00
    -15.337  0.1795E-13  0.3156E-14  0.8225E-14  0.2007E-16  0.3198E-17  0.1178E-14  0.6168E-15  0.6848E-17  0.1114E-15
    -15.218  0.3721E-05  0.6641E-06  0.1721E-05  0.4001E-08  0.6537E-09  0.2486E-06  0.1298E-06  0.1461E-08  0.2338E-07
    -15.099  0.3727E-01  0.7004E-02  0.1777E-01  0.3625E-04  0.6470E-05  0.2628E-02  0.1371E-02  0.1622E-04  0.2501E-03
    -14.980  0.3269E+00  0.6631E-01  0.1627E+00  0.2946E-03  0.6044E-04  0.2472E-01  0.1306E-01  0.1647E-03  0.2501E-02
    -14.861  0.2382E-01  0.5142E-02  0.1228E-01  0.2024E-04  0.4819E-05  0.1900E-02  0.1019E-02  0.1342E-04  0.2043E-03
    -14.741  0.6673E-06  0.1478E-06  0.3491E-06  0.5372E-09  0.1424E-09  0.5436E-07  0.2937E-07  0.3930E-09  0.6015E-08
    -14.622  0.5218E-15  0.1164E-15  0.2741E-15  0.4043E-18  0.1133E-18  0.4275E-16  0.2315E-16  0.3111E-18  0.4771E-17
    -14.503  0.0000E+00  0.0000E+00  0.0000E+00  0.0000E+00  0.0000E+00  0.0000E+00  0.0000E+00  0.0000E+00  0.0000E+00
    -14.384  0.0000E+00  0.0000E+00  0.0000E+00  0.0000E+00  0.0000E+00  0.0000E+00  0.0000E+00  0.0000E+00  0.0000E+00
    -14.265  0.0000E+00  0.0000E+00  0.0000E+00  0.0000E+00  0.0000E+00  0.0000E+00  0.0000E+00  0.0000E+00  0.0000E+00
    -14.146  0.0000E+00  0.0000E+00  0.0000E+00  0.0000E+00  0.0000E+00  0.0000E+00  0.0000E+00  0.0000E+00  0.0000E+00
    -14.026  0.0000E+00  0.0000E+00  0.0000E+00  0.0000E+00  0.0000E+00  0.0000E+00  0.0000E+00  0.0000E+00  0.0000E+00
    -13.907  0.0000E+00  0.0000E+00  0.0000E+00  0.0000E+00  0.0000E+00  0.0000E+00  0.0000E+00  0.0000E+00  0.0000E+00
    -13.788  0.0000E+00  0.0000E+00  0.0000E+00  0.0000E+00  0.0000E+00  0.0000E+00  0.0000E+00  0.0000E+00  0.0000E+00
    -13.669  0.0000E+00  0.0000E+00  0.0000E+00  0.0000E+00  0.0000E+00  0.0000E+00  0.0000E+00  0.0000E+00  0.0000E+00
    -13.550  0.0000E+00  0.0000E+00  0.0000E+00  0.0000E+00  0.0000E+00  0.0000E+00  0.0000E+00  0.0000E+00  0.0000E+00
    -13.431  0.0000E+00  0.0000E+00  0.0000E+00  0.0000E+00  0.0000E+00  0.0000E+00  0.0000E+00  0.0000E+00  0.0000E+00
    -13.311  0.0000E+00  0.0000E+00  0.0000E+00  0.0000E+00  0.0000E+00  0.0000E+00  0.0000E+00  0.0000E+00  0.0000E+00
    -13.192  0.0000E+00  0.0000E+00  0.0000E+00  0.0000E+00  0.0000E+00  0.0000E+00  0.0000E+00  0.0000E+00  0.0000E+00
    -13.073  0.0000E+00  0.0000E+00  0.0000E+00  0.0000E+00  0.0000E+00  0.0000E+00  0.0000E+00  0.0000E+00  0.0000E+00
    -12.954  0.0000E+00  0.0000E+00  0.0000E+00  0.0000E+00  0.0000E+00  0.0000E+00  0.0000E+00  0.0000E+00  0.0000E+00
    -12.835  0.0000E+00  0.0000E+00  0.0000E+00  0.0000E+00  0.0000E+00  0.0000E+00  0.0000E+00  0.0000E+00  0.0000E+00
    -12.715  0.0000E+00  0.0000E+00  0.0000E+00  0.0000E+00  0.0000E+00  0.0000E+00  0.0000E+00  0.0000E+00  0.0000E+00
    -12.596  0.0000E+00  0.0000E+00  0.0000E+00  0.0000E+00  0.0000E+00  0.0000E+00  0.0000E+00  0.0000E+00  0.0000E+00
    -12.477  0.0000E+00  0.0000E+00  0.0000E+00  0.0000E+00  0.0000E+00  0.0000E+00  0.0000E+00  0.0000E+00  0.0000E+00
    -12.358  0.0000E+00  0.0000E+00  0.0000E+00  0.0000E+00  0.0000E+00  0.0000E+00  0.0000E+00  0.0000E+00  0.0000E+00
    -12.239  0.0000E+00  0.0000E+00  0.0000E+00  0.0000E+00  0.0000E+00  0.0000E+00  0.0000E+00  0.0000E+00  0.0000E+00
    -12.120  0.0000E+00  0.0000E+00  0.0000E+00  0.0000E+00  0.0000E+00  0.0000E+00  0.0000E+00  0.0000E+00  0.0000E+00
    -12.000  0.0000E+00  0.0000E+00  0.0000E+00  0.0000E+00  0.0000E+00  0.0000E+00  0.0000E+00  0.0000E+00  0.0000E+00
    -11.881  0.0000E+00  0.0000E+00  0.0000E+00  0.0000E+00  0.0000E+00  0.0000E+00  0.0000E+00  0.0000E+00  0.0000E+00
    -11.762  0.0000E+00  0.0000E+00  0.0000E+00  0.0000E+00  0.0000E+00  0.0000E+00  0.0000E+00  0.0000E+00  0.0000E+00
    -11.643  0.0000E+00  0.0000E+00  0.0000E+00  0.0000E+00  0.0000E+00  0.0000E+00  0.0000E+00  0.0000E+00  0.0000E+00
    -11.524  0.0000E+00  0.0000E+00  0.0000E+00  0.0000E+00  0.0000E+00  0.0000E+00  0.0000E+00  0.0000E+00  0.0000E+00
    -11.404  0.0000E+00  0.0000E+00  0.0000E+00  0.0000E+00  0.0000E+00  0.0000E+00  0.0000E+00  0.0000E+00  0.0000E+00
    -11.285  0.0000E+00  0.0000E+00  0.0000E+00  0.0000E+00  0.0000E+00  0.0000E+00  0.0000E+00  0.0000E+00  0.0000E+00
    -11.166  0.0000E+00  0.0000E+00  0.0000E+00  0.0000E+00  0.0000E+00  0.0000E+00  0.0000E+00  0.0000E+00  0.0000E+00
    -11.047  0.0000E+00  0.0000E+00  0.0000E+00  0.0000E+00  0.0000E+00  0.0000E+00  0.0000E+00  0.0000E+00  0.0000E+00
    -10.928  0.0000E+00  0.0000E+00  0.0000E+00  0.0000E+00  0.0000E+00  0.0000E+00  0.0000E+00  0.0000E+00  0.0000E+00
    -10.809  0.0000E+00  0.0000E+00  0.0000E+00  0.0000E+00  0.0000E+00  0.0000E+00  0.0000E+00  0.0000E+00  0.0000E+00
    -10.689  0.0000E+00  0.0000E+00  0.0000E+00  0.0000E+00  0.0000E+00  0.0000E+00  0.0000E+00  0.0000E+00  0.0000E+00
    -10.570  0.0000E+00  0.0000E+00  0.0000E+00  0.0000E+00  0.0000E+00  0.0000E+00  0.0000E+00  0.0000E+00  0.0000E+00
    -10.451  0.0000E+00  0.0000E+00  0.0000E+00  0.0000E+00  0.0000E+00  0.0000E+00  0.0000E+00  0.0000E+00  0.0000E+00
    -10.332  0.0000E+00  0.0000E+00  0.0000E+00  0.0000E+00  0.0000E+00  0.0000E+00  0.0000E+00  0.0000E+00  0.0000E+00
    -10.213  0.0000E+00  0.0000E+00  0.0000E+00  0.0000E+00  0.0000E+00  0.0000E+00  0.0000E+00  0.0000E+00  0.0000E+00
    -10.093  0.0000E+00  0.0000E+00  0.0000E+00  0.0000E+00  0.0000E+00  0.0000E+00  0.0000E+00  0.0000E+00  0.0000E+00
     -9.974  0.0000E+00  0.0000E+00  0.0000E+00  0.0000E+00  0.0000E+00  0.0000E+00  0.0000E+00  0.0000E+00  0.0000E+00
     -9.855  0.0000E+00  0.0000E+00  0.0000E+00  0.0000E+00  0.0000E+00  0.0000E+00  0.0000E+00  0.0000E+00  0.0000E+00
     -9.736  0.0000E+00  0.0000E+00  0.0000E+00  0.0000E+00  0.0000E+00  0.0000E+00  0.0000E+00  0.0000E+00  0.0000E+00
     -9.617  0.0000E+00  0.0000E+00  0.0000E+00  0.0000E+00  0.0000E+00  0.0000E+00  0.0000E+00  0.0000E+00  0.0000E+00
     -9.498  0.0000E+00  0.0000E+00  0.0000E+00  0.0000E+00  0.0000E+00  0.0000E+00  0.0000E+00  0.0000E+00  0.0000E+00
     -9.378  0.0000E+00  0.0000E+00  0.0000E+00  0.0000E+00  0.0000E+00  0.0000E+00  0.0000E+00  0.0000E+00  0.0000E+00
     -9.259  0.0000E+00  0.0000E+00  0.0000E+00  0.0000E+00  0.0000E+00  0.0000E+00  0.0000E+00  0.0000E+00  0.0000E+00
     -9.140  0.0000E+00  0.0000E+00  0.0000E+00  0.0000E+00  0.0000E+00  0.0000E+00  0.0000E+00  0.0000E+00  0.0000E+00
     -9.021  0.0000E+00  0.0000E+00  0.0000E+00  0.0000E+00  0.0000E+00  0.0000E+00  0.0000E+00  0.0000E+00  0.0000E+00
     -8.902  0.0000E+00  0.0000E+00  0.0000E+00  0.0000E+00  0.0000E+00  0.0000E+00  0.0000E+00  0.0000E+00  0.0000E+00
     -8.783  0.0000E+00  0.0000E+00  0.0000E+00  0.0000E+00  0.0000E+00  0.0000E+00  0.0000E+00  0.0000E+00  0.0000E+00
     -8.663  0.0000E+00  0.0000E+00  0.0000E+00  0.0000E+00  0.0000E+00  0.0000E+00  0.0000E+00  0.0000E+00  0.0000E+00
     -8.544  0.2310E-08  0.1247E-09  0.1433E-10  0.1169E-09  0.1383E-12  0.3242E-10  0.2164E-10  0.5725E-12  0.3080E-11
     -8.425  0.7923E-03  0.4277E-04  0.4771E-05  0.4008E-04  0.5400E-07  0.1098E-04  0.7329E-05  0.1966E-06  0.1059E-05
     -8.306  0.5767E-01  0.3112E-02  0.2896E-03  0.2899E-02  0.6506E-05  0.7404E-03  0.4956E-03  0.1448E-04  0.7835E-04
     -8.187  0.1025E+00  0.5440E-02  0.3894E-03  0.5241E-02  0.2274E-04  0.1089E-02  0.7324E-03  0.2638E-04  0.1449E-03
     -8.067  0.1430E+00  0.7054E-02  0.5815E-03  0.7682E-02  0.4565E-04  0.1190E-02  0.8003E-03  0.3597E-04  0.2036E-03
     -7.948  0.2568E+00  0.1169E-01  0.1320E-02  0.1416E-01  0.9953E-04  0.1685E-02  0.1133E-02  0.6567E-04  0.3854E-03
     -7.829  0.2571E+00  0.1551E-01  0.1716E-02  0.1708E-01  0.1917E-03  0.1577E-02  0.1081E-02  0.5280E-04  0.4632E-03
     -7.710  0.2438E+00  0.1456E-01  0.1420E-02  0.2239E-01  0.1959E-03  0.1454E-02  0.9434E-03  0.6123E-04  0.4528E-03
     -7.591  0.1870E+00  0.1340E-01  0.1298E-02  0.1730E-01  0.1914E-03  0.1273E-02  0.8305E-03  0.3272E-04  0.4422E-03
     -7.472  0.7370E+00  0.8606E-02  0.1199E-01  0.1650E-01  0.1554E-03  0.8696E-03  0.5338E-03  0.9109E-04  0.8695E-03
     -7.352  0.1097E+01  0.1070E-01  0.1938E-01  0.2541E-01  0.2509E-03  0.1317E-02  0.7743E-03  0.1055E-03  0.1149E-02
     -7.233  0.2638E+00  0.2131E-02  0.4476E-02  0.6942E-02  0.6968E-04  0.3627E-03  0.2000E-03  0.2086E-04  0.2014E-03
     -7.114  0.2015E-02  0.2005E-03  0.1028E-03  0.7953E-03  0.2903E-05  0.3043E-04  0.1164E-04  0.4988E-06  0.6311E-04
     -6.995  0.5162E-01  0.5598E-02  0.3709E-02  0.1798E-01  0.9698E-04  0.6371E-03  0.2406E-03  0.1315E-04  0.1577E-02
     -6.876  0.9698E-01  0.1117E-01  0.9732E-02  0.2322E-01  0.2056E-03  0.8208E-03  0.3384E-03  0.3915E-04  0.2836E-02
     -6.756  0.7975E-01  0.1118E-01  0.1148E-01  0.1523E-01  0.2012E-03  0.7158E-03  0.3392E-03  0.6228E-04  0.3351E-02
     -6.637  0.4550E-01  0.7648E-02  0.8033E-02  0.1007E-01  0.1599E-03  0.6437E-03  0.2861E-03  0.6030E-04  0.3364E-02
     -6.518  0.4148E-01  0.7723E-02  0.7918E-02  0.5110E-02  0.1879E-03  0.6820E-03  0.2998E-03  0.8177E-04  0.4066E-02
     -6.399  0.4221E-01  0.4820E-02  0.6599E-02  0.1566E-02  0.1206E-03  0.2218E-03  0.1716E-03  0.4135E-04  0.1409E-02
     -6.280  0.1993E-01  0.2193E-02  0.3133E-02  0.2244E-03  0.5303E-04  0.3607E-04  0.6127E-04  0.1200E-04  0.2754E-03
     -6.161  0.2652E-03  0.3007E-04  0.4251E-04  0.1860E-05  0.7236E-06  0.4320E-06  0.8166E-06  0.1567E-06  0.3470E-05
     -6.041  0.3609E-09  0.4121E-10  0.5810E-10  0.2217E-11  0.9903E-12  0.5755E-12  0.1113E-11  0.2129E-12  0.4678E-11
     -5.922  0.0000E+00  0.0000E+00  0.0000E+00  0.0000E+00  0.0000E+00  0.0000E+00  0.0000E+00  0.0000E+00  0.0000E+00
     -5.803  0.3530E-18  0.1894E-19  0.4391E-19  0.1908E-19  0.6387E-21  0.4382E-21  0.1962E-20  0.7700E-21  0.1094E-20
     -5.684  0.3156E-08  0.1707E-09  0.3919E-09  0.1701E-09  0.5741E-11  0.3935E-11  0.1756E-10  0.6866E-11  0.9878E-11
     -5.565  0.7088E-03  0.3884E-04  0.8777E-04  0.3802E-04  0.1301E-05  0.8907E-06  0.3949E-05  0.1536E-05  0.2256E-05
     -5.445  0.2464E-01  0.1442E-02  0.3012E-02  0.1297E-02  0.4730E-04  0.3216E-04  0.1386E-03  0.5235E-04  0.8521E-04
     -5.326  0.3554E-01  0.3566E-02  0.4725E-02  0.2088E-02  0.9293E-04  0.5053E-04  0.2125E-03  0.7757E-04  0.2063E-03
     -5.207  0.7331E-01  0.9935E-02  0.9402E-02  0.5266E-02  0.2477E-03  0.1125E-03  0.4855E-03  0.1521E-03  0.6613E-03
     -5.088  0.1368E+00  0.2620E-01  0.1622E-01  0.1336E-01  0.6234E-03  0.2200E-03  0.1061E-02  0.2257E-03  0.1895E-02
     -4.969  0.1104E+00  0.4634E-01  0.2359E-01  0.2663E-01  0.8026E-03  0.4966E-03  0.1132E-02  0.2548E-03  0.4144E-02
     -4.850  0.3235E-01  0.4622E-01  0.1974E-01  0.3574E-01  0.3173E-03  0.1564E-02  0.6243E-03  0.1749E-03  0.6230E-02
     -4.730  0.1786E+00  0.9086E-01  0.8311E-02  0.4134E-01  0.1473E-02  0.5912E-02  0.4672E-03  0.1563E-03  0.8896E-02
     -4.611  0.1314E+00  0.8052E-01  0.5126E-02  0.3466E-01  0.1683E-02  0.4456E-02  0.7250E-03  0.2061E-03  0.6093E-02
     -4.492  0.7312E-01  0.5788E-01  0.4498E-02  0.2249E-01  0.9454E-03  0.2585E-02  0.8155E-03  0.1529E-03  0.2892E-02
     -4.373  0.5948E-01  0.4013E-01  0.6529E-02  0.1885E-01  0.1054E-02  0.1899E-02  0.6770E-03  0.8515E-04  0.3197E-02
     -4.254  0.5468E-01  0.3435E-01  0.7707E-02  0.1998E-01  0.1408E-02  0.1883E-02  0.7856E-03  0.6716E-04  0.5677E-02
     -4.135  0.1974E-01  0.8555E-02  0.3056E-02  0.8460E-02  0.4940E-03  0.1015E-02  0.3783E-03  0.7253E-04  0.4103E-02