  22  22   1   0
  0.1420100E+02  0.5010501E-09  0.5010501E-09  0.1436974E-08  0.5000000E-15
  1.000000000000000E-004
  CAR 
 unknown system                          
     16.16095934    -45.92788727  301     -1.37913983      1.00000000
    -45.928  0.0000E+00  0.0000E+00  0.0000E+00  0.0000E+00
    -45.721  0.0000E+00  0.0000E+00  0.0000E+00  0.0000E+00
    -45.514  0.0000E+00  0.0000E+00  0.0000E+00  0.0000E+00
    -45.307  0.0000E+00  0.0000E+00  0.0000E+00  0.0000E+00
    -45.100  0.0000E+00  0.0000E+00  0.0000E+00  0.0000E+00
    -44.893  0.0000E+00  0.0000E+00  0.0000E+00  0.0000E+00
    -44.686  0.0000E+00  0.0000E+00  0.0000E+00  0.0000E+00
    -44.479  0.0000E+00  0.0000E+00  0.0000E+00  0.0000E+00
    -44.272  0.0000E+00  0.0000E+00  0.0000E+00  0.0000E+00
    -44.065  0.0000E+00  0.0000E+00  0.0000E+00  0.0000E+00
    -43.858  0.0000E+00  0.0000E+00  0.0000E+00  0.0000E+00
    -43.651  0.0000E+00  0.0000E+00  0.0000E+00  0.0000E+00
    -43.444  0.0000E+00  0.0000E+00  0.0000E+00  0.0000E+00
    -43.237  0.2049E-02  0.1477E-04  0.4241E-03  0.3056E-05
    -43.030  0.2830E+02  0.1984E+02  0.5857E+01  0.4106E+01
    -42.823  0.6932E+00  0.9152E+01  0.6000E+01  0.6000E+01
    -42.616  0.0000E+00  0.0000E+00  0.6000E+01  0.6000E+01
    -42.410  0.0000E+00  0.0000E+00  0.6000E+01  0.6000E+01
    -42.203  0.0000E+00  0.0000E+00  0.6000E+01  0.6000E+01
    -41.996  0.0000E+00  0.0000E+00  0.6000E+01  0.6000E+01
    -41.789  0.4353E-08  0.0000E+00  0.6000E+01  0.6000E+01
    -41.582  0.6790E+01  0.0000E+00  0.7405E+01  0.6000E+01
    -41.375  0.1254E+02  0.0000E+00  0.1000E+02  0.6000E+01
    -41.168  0.7631E+00  0.0000E+00  0.1016E+02  0.6000E+01
    -40.961  0.8900E+01  0.2063E-02  0.1200E+02  0.6000E+01
    -40.754  0.4312E-04  0.1902E+02  0.1200E+02  0.9937E+01
    -40.547  0.0000E+00  0.3040E+00  0.1200E+02  0.1000E+02
    -40.340  0.0000E+00  0.0000E+00  0.1200E+02  0.1000E+02
    -40.133  0.0000E+00  0.0000E+00  0.1200E+02  0.1000E+02
    -39.926  0.0000E+00  0.2146E-14  0.1200E+02  0.1000E+02
    -39.719  0.0000E+00  0.1122E+00  0.1200E+02  0.1002E+02
    -39.512  0.0000E+00  0.9550E+01  0.1200E+02  0.1200E+02
    -39.305  0.0000E+00  0.1635E-02  0.1200E+02  0.1200E+02
    -39.098  0.0000E+00  0.0000E+00  0.1200E+02  0.1200E+02
    -38.891  0.0000E+00  0.0000E+00  0.1200E+02  0.1200E+02
    -38.684  0.0000E+00  0.0000E+00  0.1200E+02  0.1200E+02
    -38.477  0.0000E+00  0.0000E+00  0.1200E+02  0.1200E+02
    -38.270  0.0000E+00  0.0000E+00  0.1200E+02  0.1200E+02
    -38.063  0.0000E+00  0.0000E+00  0.1200E+02  0.1200E+02
    -37.856  0.0000E+00  0.0000E+00  0.1200E+02  0.1200E+02
    -37.649  0.0000E+00  0.0000E+00  0.1200E+02  0.1200E+02
    -37.442  0.0000E+00  0.0000E+00  0.1200E+02  0.1200E+02
    -37.235  0.0000E+00  0.0000E+00  0.1200E+02  0.1200E+02
    -37.028  0.0000E+00  0.0000E+00  0.1200E+02  0.1200E+02
    -36.822  0.0000E+00  0.0000E+00  0.1200E+02  0.1200E+02
    -36.615  0.0000E+00  0.0000E+00  0.1200E+02  0.1200E+02
    -36.408  0.0000E+00  0.0000E+00  0.1200E+02  0.1200E+02
    -36.201  0.0000E+00  0.0000E+00  0.1200E+02  0.1200E+02
    -35.994  0.0000E+00  0.0000E+00  0.1200E+02  0.1200E+02
    -35.787  0.0000E+00  0.0000E+00  0.1200E+02  0.1200E+02
    -35.580  0.0000E+00  0.0000E+00  0.1200E+02  0.1200E+02
    -35.373  0.0000E+00  0.0000E+00  0.1200E+02  0.1200E+02
    -35.166  0.0000E+00  0.0000E+00  0.1200E+02  0.1200E+02
    -34.959  0.0000E+00  0.0000E+00  0.1200E+02  0.1200E+02
    -34.752  0.0000E+00  0.0000E+00  0.1200E+02  0.1200E+02
    -34.545  0.0000E+00  0.0000E+00  0.1200E+02  0.1200E+02
    -34.338  0.0000E+00  0.0000E+00  0.1200E+02  0.1200E+02
    -34.131  0.0000E+00  0.0000E+00  0.1200E+02  0.1200E+02
    -33.924  0.0000E+00  0.0000E+00  0.1200E+02  0.1200E+02
    -33.717  0.0000E+00  0.0000E+00  0.1200E+02  0.1200E+02
    -33.510  0.0000E+00  0.0000E+00  0.1200E+02  0.1200E+02
    -33.303  0.0000E+00  0.0000E+00  0.1200E+02  0.1200E+02
    -33.096  0.0000E+00  0.0000E+00  0.1200E+02  0.1200E+02
    -32.889  0.0000E+00  0.0000E+00  0.1200E+02  0.1200E+02
    -32.682  0.0000E+00  0.0000E+00  0.1200E+02  0.1200E+02
    -32.475  0.0000E+00  0.0000E+00  0.1200E+02  0.1200E+02
    -32.268  0.0000E+00  0.0000E+00  0.1200E+02  0.1200E+02
    -32.061  0.0000E+00  0.0000E+00  0.1200E+02  0.1200E+02
    -31.854  0.0000E+00  0.0000E+00  0.1200E+02  0.1200E+02
    -31.647  0.0000E+00  0.0000E+00  0.1200E+02  0.1200E+02
    -31.440  0.0000E+00  0.0000E+00  0.1200E+02  0.1200E+02
    -31.234  0.0000E+00  0.0000E+00  0.1200E+02  0.1200E+02
    -31.027  0.0000E+00  0.0000E+00  0.1200E+02  0.1200E+02
    -30.820  0.0000E+00  0.0000E+00  0.1200E+02  0.1200E+02
    -30.613  0.0000E+00  0.0000E+00  0.1200E+02  0.1200E+02
    -30.406  0.0000E+00  0.0000E+00  0.1200E+02  0.1200E+02
    -30.199  0.0000E+00  0.0000E+00  0.1200E+02  0.1200E+02
    -29.992  0.0000E+00  0.0000E+00  0.1200E+02  0.1200E+02
    -29.785  0.0000E+00  0.0000E+00  0.1200E+02  0.1200E+02
    -29.578  0.0000E+00  0.0000E+00  0.1200E+02  0.1200E+02
    -29.371  0.0000E+00  0.0000E+00  0.1200E+02  0.1200E+02
    -29.164  0.0000E+00  0.0000E+00  0.1200E+02  0.1200E+02
    -28.957  0.0000E+00  0.0000E+00  0.1200E+02  0.1200E+02
    -28.750  0.0000E+00  0.0000E+00  0.1200E+02  0.1200E+02
    -28.543  0.0000E+00  0.0000E+00  0.1200E+02  0.1200E+02
    -28.336  0.0000E+00  0.0000E+00  0.1200E+02  0.1200E+02
    -28.129  0.0000E+00  0.0000E+00  0.1200E+02  0.1200E+02
    -27.922  0.0000E+00  0.0000E+00  0.1200E+02  0.1200E+02
    -27.715  0.0000E+00  0.0000E+00  0.1200E+02  0.1200E+02
    -27.508  0.0000E+00  0.0000E+00  0.1200E+02  0.1200E+02
    -27.301  0.0000E+00  0.0000E+00  0.1200E+02  0.1200E+02
    -27.094  0.0000E+00  0.0000E+00  0.1200E+02  0.1200E+02
    -26.887  0.0000E+00  0.0000E+00  0.1200E+02  0.1200E+02
    -26.680  0.0000E+00  0.0000E+00  0.1200E+02  0.1200E+02
    -26.473  0.0000E+00  0.0000E+00  0.1200E+02  0.1200E+02
    -26.266  0.0000E+00  0.0000E+00  0.1200E+02  0.1200E+02
    -26.059  0.0000E+00  0.0000E+00  0.1200E+02  0.1200E+02
    -25.852  0.0000E+00  0.0000E+00  0.1200E+02  0.1200E+02
    -25.646  0.0000E+00  0.0000E+00  0.1200E+02  0.1200E+02
    -25.439  0.0000E+00  0.0000E+00  0.1200E+02  0.1200E+02
    -25.232  0.6390E-07  0.7200E-07  0.1200E+02  0.1200E+02
    -25.025  0.1896E+01  0.1923E+01  0.1239E+02  0.1240E+02
    -24.818  0.7755E+01  0.7729E+01  0.1400E+02  0.1400E+02
    -24.611  0.4769E+01  0.5463E+01  0.1498E+02  0.1513E+02
    -24.404  0.1618E+02  0.1536E+02  0.1833E+02  0.1831E+02
    -24.197  0.8059E+01  0.8177E+01  0.2000E+02  0.2000E+02
    -23.990  0.8801E+01  0.9105E+01  0.2182E+02  0.2188E+02
    -23.783  0.1053E+02  0.1022E+02  0.2400E+02  0.2400E+02
    -23.576  0.2125E+01  0.1407E+01  0.2444E+02  0.2429E+02
    -23.369  0.1378E+02  0.1392E+02  0.2729E+02  0.2717E+02
    -23.162  0.1309E+02  0.1366E+02  0.3000E+02  0.3000E+02
    -22.955  0.1095E-03  0.1754E-03  0.3000E+02  0.3000E+02
    -22.748  0.0000E+00  0.0000E+00  0.3000E+02  0.3000E+02
    -22.541  0.0000E+00  0.0000E+00  0.3000E+02  0.3000E+02
    -22.334  0.0000E+00  0.0000E+00  0.3000E+02  0.3000E+02
    -22.127  0.0000E+00  0.0000E+00  0.3000E+02  0.3000E+02
    -21.920  0.0000E+00  0.0000E+00  0.3000E+02  0.3000E+02
    -21.713  0.0000E+00  0.0000E+00  0.3000E+02  0.3000E+02
    -21.506  0.0000E+00  0.0000E+00  0.3000E+02  0.3000E+02
    -21.299  0.0000E+00  0.0000E+00  0.3000E+02  0.3000E+02
    -21.092  0.0000E+00  0.0000E+00  0.3000E+02  0.3000E+02
    -20.885  0.0000E+00  0.0000E+00  0.3000E+02  0.3000E+02
    -20.678  0.0000E+00  0.0000E+00  0.3000E+02  0.3000E+02
    -20.471  0.0000E+00  0.0000E+00  0.3000E+02  0.3000E+02
    -20.264  0.0000E+00  0.0000E+00  0.3000E+02  0.3000E+02
    -20.058  0.0000E+00  0.0000E+00  0.3000E+02  0.3000E+02
    -19.851  0.0000E+00  0.0000E+00  0.3000E+02  0.3000E+02
    -19.644  0.0000E+00  0.0000E+00  0.3000E+02  0.3000E+02
    -19.437  0.0000E+00  0.0000E+00  0.3000E+02  0.3000E+02
    -19.230  0.0000E+00  0.0000E+00  0.3000E+02  0.3000E+02
    -19.023  0.0000E+00  0.0000E+00  0.3000E+02  0.3000E+02
    -18.816  0.0000E+00  0.0000E+00  0.3000E+02  0.3000E+02
    -18.609  0.0000E+00  0.0000E+00  0.3000E+02  0.3000E+02
    -18.402  0.0000E+00  0.0000E+00  0.3000E+02  0.3000E+02
    -18.195  0.0000E+00  0.0000E+00  0.3000E+02  0.3000E+02
    -17.988  0.0000E+00  0.0000E+00  0.3000E+02  0.3000E+02
    -17.781  0.0000E+00  0.0000E+00  0.3000E+02  0.3000E+02
    -17.574  0.0000E+00  0.0000E+00  0.3000E+02  0.3000E+02
    -17.367  0.0000E+00  0.0000E+00  0.3000E+02  0.3000E+02
    -17.160  0.0000E+00  0.0000E+00  0.3000E+02  0.3000E+02
    -16.953  0.0000E+00  0.0000E+00  0.3000E+02  0.3000E+02
    -16.746  0.0000E+00  0.0000E+00  0.3000E+02  0.3000E+02
    -16.539  0.0000E+00  0.0000E+00  0.3000E+02  0.3000E+02
    -16.332  0.0000E+00  0.0000E+00  0.3000E+02  0.3000E+02
    -16.125  0.0000E+00  0.0000E+00  0.3000E+02  0.3000E+02
    -15.918  0.0000E+00  0.0000E+00  0.3000E+02  0.3000E+02
    -15.711  0.0000E+00  0.0000E+00  0.3000E+02  0.3000E+02
    -15.504  0.0000E+00  0.0000E+00  0.3000E+02  0.3000E+02
    -15.297  0.0000E+00  0.0000E+00  0.3000E+02  0.3000E+02
    -15.090  0.0000E+00  0.0000E+00  0.3000E+02  0.3000E+02
    -14.883  0.0000E+00  0.0000E+00  0.3000E+02  0.3000E+02
    -14.677  0.0000E+00  0.0000E+00  0.3000E+02  0.3000E+02
    -14.470  0.0000E+00  0.0000E+00  0.3000E+02  0.3000E+02
    -14.263  0.0000E+00  0.0000E+00  0.3000E+02  0.3000E+02
    -14.056  0.0000E+00  0.0000E+00  0.3000E+02  0.3000E+02
    -13.849  0.0000E+00  0.0000E+00  0.3000E+02  0.3000E+02
    -13.642  0.0000E+00  0.0000E+00  0.3000E+02  0.3000E+02
    -13.435  0.0000E+00  0.0000E+00  0.3000E+02  0.3000E+02
    -13.228  0.0000E+00  0.0000E+00  0.3000E+02  0.3000E+02
    -13.021  0.0000E+00  0.0000E+00  0.3000E+02  0.3000E+02
    -12.814  0.0000E+00  0.0000E+00  0.3000E+02  0.3000E+02
    -12.607  0.0000E+00  0.0000E+00  0.3000E+02  0.3000E+02
    -12.400  0.0000E+00  0.0000E+00  0.3000E+02  0.3000E+02
    -12.193  0.0000E+00  0.0000E+00  0.3000E+02  0.3000E+02
    -11.986  0.0000E+00  0.0000E+00  0.3000E+02  0.3000E+02
    -11.779  0.0000E+00  0.0000E+00  0.3000E+02  0.3000E+02
    -11.572  0.0000E+00  0.0000E+00  0.3000E+02  0.3000E+02
    -11.365  0.0000E+00  0.0000E+00  0.3000E+02  0.3000E+02
    -11.158  0.0000E+00  0.0000E+00  0.3000E+02  0.3000E+02
    -10.951  0.0000E+00  0.0000E+00  0.3000E+02  0.3000E+02
    -10.744  0.0000E+00  0.0000E+00  0.3000E+02  0.3000E+02
    -10.537  0.0000E+00  0.0000E+00  0.3000E+02  0.3000E+02
    -10.330  0.0000E+00  0.0000E+00  0.3000E+02  0.3000E+02
    -10.123  0.0000E+00  0.0000E+00  0.3000E+02  0.3000E+02
     -9.916  0.0000E+00  0.0000E+00  0.3000E+02  0.3000E+02
     -9.709  0.0000E+00  0.0000E+00  0.3000E+02  0.3000E+02
     -9.502  0.0000E+00  0.0000E+00  0.3000E+02  0.3000E+02
     -9.295  0.0000E+00  0.0000E+00  0.3000E+02  0.3000E+02
     -9.089  0.0000E+00  0.0000E+00  0.3000E+02  0.3000E+02
     -8.882  0.0000E+00  0.0000E+00  0.3000E+02  0.3000E+02
     -8.675  0.0000E+00  0.0000E+00  0.3000E+02  0.3000E+02
     -8.468  0.0000E+00  0.0000E+00  0.3000E+02  0.3000E+02
     -8.261  0.0000E+00  0.0000E+00  0.3000E+02  0.3000E+02
     -8.054  0.3723E-05  0.6041E-06  0.3000E+02  0.3000E+02
     -7.847  0.4728E+01  0.3265E+01  0.3098E+02  0.3068E+02
     -7.640  0.2025E+02  0.1563E+02  0.3517E+02  0.3391E+02
     -7.433  0.4092E+01  0.7629E+01  0.3602E+02  0.3549E+02
     -7.226  0.7158E+01  0.7788E+01  0.3750E+02  0.3710E+02
     -7.019  0.1654E+02  0.1694E+02  0.4092E+02  0.4061E+02
     -6.812  0.4988E+01  0.6397E+01  0.4195E+02  0.4193E+02
     -6.605  0.5290E+01  0.1454E+01  0.4305E+02  0.4223E+02
     -6.398  0.1912E+02  0.1634E+02  0.4701E+02  0.4561E+02
     -6.191  0.6674E+01  0.1165E+02  0.4839E+02  0.4802E+02
     -5.984  0.1841E+02  0.1264E+02  0.5220E+02  0.5064E+02
     -5.777  0.1026E+02  0.1638E+02  0.5432E+02  0.5403E+02
     -5.570  0.1321E+02  0.1040E+02  0.5706E+02  0.5618E+02
     -5.363  0.1936E+02  0.1791E+02  0.6106E+02  0.5989E+02
     -5.156  0.2087E+02  0.1722E+02  0.6538E+02  0.6345E+02
     -4.949  0.1881E+02  0.1827E+02  0.6928E+02  0.6723E+02
     -4.742  0.1312E+02  0.2096E+02  0.7199E+02  0.7157E+02
     -4.535  0.6661E+01  0.8888E+01  0.7337E+02  0.7341E+02
     -4.328  0.1069E+02  0.1046E+02  0.7558E+02  0.7557E+02
     -4.121  0.2530E+02  0.2366E+02  0.8082E+02  0.8047E+02
     -3.914  0.1049E+02  0.1299E+02  0.8299E+02  0.8316E+02
     -3.707  0.4889E+01  0.4059E+01  0.8400E+02  0.8400E+02
     -3.501  0.3916E-02  0.7933E-04  0.8400E+02  0.8400E+02
     -3.294  0.0000E+00  0.0000E+00  0.8400E+02  0.8400E+02
     -3.087  0.0000E+00  0.0000E+00  0.8400E+02  0.8400E+02
     -2.880  0.0000E+00  0.0000E+00  0.8400E+02  0.8400E+02
     -2.673  0.0000E+00  0.0000E+00  0.8400E+02  0.8400E+02
     -2.466  0.0000E+00  0.0000E+00  0.8400E+02  0.8400E+02
     -2.259  0.0000E+00  0.0000E+00  0.8400E+02  0.8400E+02
     -2.052  0.0000E+00  0.0000E+00  0.8400E+02  0.8400E+02
     -1.845  0.1190E-03  0.0000E+00  0.8400E+02  0.8400E+02
     -1.638  0.6367E+01  0.0000E+00  0.8532E+02  0.8400E+02
     -1.431  0.3296E+01  0.0000E+00  0.8600E+02  0.8400E+02
     -1.224  0.7267E-07  0.0000E+00  0.8600E+02  0.8400E+02
     -1.017  0.8510E+00  0.5893E-04  0.8618E+02  0.8400E+02
     -0.810  0.2526E+02  0.1428E+02  0.9140E+02  0.8695E+02
     -0.603  0.2875E+01  0.1471E+02  0.9200E+02  0.9000E+02
     -0.396  0.0000E+00  0.6349E-05  0.9200E+02  0.9000E+02
     -0.189  0.0000E+00  0.0000E+00  0.9200E+02  0.9000E+02
      0.018  0.0000E+00  0.0000E+00  0.9200E+02  0.9000E+02
      0.225  0.5001E-08  0.0000E+00  0.9200E+02  0.9000E+02
      0.432  0.3826E+01  0.0000E+00  0.9279E+02  0.9000E+02
      0.639  0.1550E+02  0.0000E+00  0.9600E+02  0.9000E+02
      0.846  0.2444E-02  0.1025E-05  0.9600E+02  0.9000E+02
      1.053  0.1733E-03  0.7449E+01  0.9600E+02  0.9154E+02
      1.260  0.1795E+02  0.2002E+02  0.9971E+02  0.9568E+02
      1.467  0.1378E+01  0.1119E+02  0.1000E+03  0.9800E+02
      1.674  0.0000E+00  0.5424E-06  0.1000E+03  0.9800E+02
      1.881  0.2375E-06  0.0000E+00  0.1000E+03  0.9800E+02
      2.087  0.1016E+02  0.2194E-03  0.1021E+03  0.9800E+02
      2.294  0.9172E+01  0.9267E+01  0.1040E+03  0.9992E+02
      2.501  0.0000E+00  0.1313E+01  0.1040E+03  0.1002E+03
      2.708  0.0000E+00  0.1841E+02  0.1040E+03  0.1040E+03
      2.915  0.0000E+00  0.4630E-03  0.1040E+03  0.1040E+03
      3.122  0.0000E+00  0.0000E+00  0.1040E+03  0.1040E+03
      3.329  0.0000E+00  0.0000E+00  0.1040E+03  0.1040E+03
      3.536  0.0000E+00  0.0000E+00  0.1040E+03  0.1040E+03
      3.743  0.0000E+00  0.0000E+00  0.1040E+03  0.1040E+03
      3.950  0.0000E+00  0.0000E+00  0.1040E+03  0.1040E+03
      4.157  0.0000E+00  0.0000E+00  0.1040E+03  0.1040E+03
      4.364  0.0000E+00  0.0000E+00  0.1040E+03  0.1040E+03
      4.571  0.0000E+00  0.0000E+00  0.1040E+03  0.1040E+03
      4.778  0.0000E+00  0.0000E+00  0.1040E+03  0.1040E+03
      4.985  0.1322E-04  0.1704E-07  0.1040E+03  0.1040E+03
      5.192  0.3639E+00  0.2042E+00  0.1041E+03  0.1040E+03
      5.399  0.4926E+00  0.4540E+00  0.1042E+03  0.1041E+03
      5.606  0.8983E+00  0.9526E+00  0.1044E+03  0.1043E+03
      5.813  0.5127E+00  0.5496E+00  0.1045E+03  0.1044E+03
      6.020  0.4172E+00  0.4375E+00  0.1046E+03  0.1045E+03
      6.227  0.7893E+00  0.6044E+00  0.1047E+03  0.1047E+03
      6.434  0.8924E+00  0.9936E+00  0.1049E+03  0.1049E+03
      6.641  0.6378E+00  0.6686E+00  0.1050E+03  0.1050E+03
      6.848  0.5601E+00  0.5829E+00  0.1052E+03  0.1051E+03
      7.055  0.5301E+00  0.5255E+00  0.1053E+03  0.1052E+03
      7.262  0.6242E+00  0.5091E+00  0.1054E+03  0.1053E+03
      7.469  0.1522E+01  0.1319E+01  0.1057E+03  0.1056E+03
      7.675  0.1437E+01  0.1344E+01  0.1060E+03  0.1059E+03
      7.882  0.1363E+01  0.1452E+01  0.1063E+03  0.1062E+03
      8.089  0.2098E+01  0.1888E+01  0.1067E+03  0.1066E+03
      8.296  0.1588E+01  0.1961E+01  0.1070E+03  0.1070E+03
      8.503  0.1700E+01  0.1411E+01  0.1074E+03  0.1073E+03
      8.710  0.2992E+01  0.3110E+01  0.1080E+03  0.1079E+03
      8.917  0.2138E+01  0.2325E+01  0.1085E+03  0.1084E+03
      9.124  0.1792E+01  0.1743E+01  0.1088E+03  0.1088E+03
      9.331  0.2493E+01  0.2310E+01  0.1093E+03  0.1092E+03
      9.538  0.2013E+01  0.2214E+01  0.1098E+03  0.1097E+03
      9.745  0.2028E+01  0.1849E+01  0.1102E+03  0.1101E+03
      9.952  0.2761E+01  0.2291E+01  0.1108E+03  0.1106E+03
     10.159  0.2621E+01  0.2913E+01  0.1113E+03  0.1112E+03
     10.366  0.2117E+01  0.2283E+01  0.1117E+03  0.1116E+03
     10.573  0.2338E+01  0.2214E+01  0.1122E+03  0.1121E+03
     10.780  0.2356E+01  0.2436E+01  0.1127E+03  0.1126E+03
     10.987  0.2894E+01  0.2768E+01  0.1133E+03  0.1132E+03
     11.194  0.3639E+01  0.3416E+01  0.1141E+03  0.1139E+03
     11.401  0.2812E+01  0.3004E+01  0.1146E+03  0.1145E+03
     11.608  0.4080E+01  0.3650E+01  0.1155E+03  0.1153E+03
     11.815  0.4112E+01  0.3935E+01  0.1163E+03  0.1161E+03
     12.022  0.5174E+01  0.4982E+01  0.1174E+03  0.1171E+03
     12.229  0.3443E+01  0.4242E+01  0.1181E+03  0.1180E+03
     12.436  0.2246E+01  0.2372E+01  0.1186E+03  0.1185E+03
     12.643  0.2976E+01  0.2949E+01  0.1192E+03  0.1191E+03
     12.850  0.1602E+01  0.1989E+01  0.1195E+03  0.1195E+03
     13.057  0.1415E+01  0.1327E+01  0.1198E+03  0.1198E+03
     13.263  0.8149E+00  0.1032E+01  0.1200E+03  0.1200E+03
     13.470  0.2623E-01  0.9671E-01  0.1200E+03  0.1200E+03
     13.677  0.0000E+00  0.2406E-05  0.1200E+03  0.1200E+03
     13.884  0.0000E+00  0.0000E+00  0.1200E+03  0.1200E+03
     14.091  0.0000E+00  0.0000E+00  0.1200E+03  0.1200E+03
     14.298  0.0000E+00  0.0000E+00  0.1200E+03  0.1200E+03
     14.505  0.0000E+00  0.0000E+00  0.1200E+03  0.1200E+03
     14.712  0.0000E+00  0.0000E+00  0.1200E+03  0.1200E+03
     14.919  0.0000E+00  0.0000E+00  0.1200E+03  0.1200E+03
     15.126  0.0000E+00  0.0000E+00  0.1200E+03  0.1200E+03
     15.333  0.0000E+00  0.0000E+00  0.1200E+03  0.1200E+03
     15.540  0.0000E+00  0.0000E+00  0.1200E+03  0.1200E+03
     15.747  0.0000E+00  0.0000E+00  0.1200E+03  0.1200E+03
     15.954  0.0000E+00  0.0000E+00  0.1200E+03  0.1200E+03
     16.161  0.0000E+00  0.0000E+00  0.1200E+03  0.1200E+03
     16.16095934    -45.92788727  301     -1.37913983      1.00000000
    -45.928  0.0000E+00  0.0000E+00  0.0000E+00  0.0000E+00  0.0000E+00  0.0000E+00  0.0000E+00  0.0000E+00  0.0000E+00  0.0000E+00  0.0000E+00  0.0000E+00  0.0000E+00  0.0000E+00  0.0000E+00  0.0000E+00  0.0000E+00  0.0000E+00
    -45.721  0.0000E+00  0.0000E+00  0.0000E+00  0.0000E+00  0.0000E+00  0.0000E+00  0.0000E+00  0.0000E+00  0.0000E+00  0.0000E+00  0.0000E+00  0.0000E+00  0.0000E+00  0.0000E+00  0.0000E+00  0.0000E+00  0.0000E+00  0.0000E+00
    -45.514  0.0000E+00  0.0000E+00  0.0000E+00  0.0000E+00  0.0000E+00  0.0000E+00  0.0000E+00  0.0000E+00  0.0000E+00  0.0000E+00  0.0000E+00  0.0000E+00  0.0000E+00  0.0000E+00  0.0000E+00  0.0000E+00  0.0000E+00  0.0000E+00
    -45.307  0.0000E+00  0.0000E+00  0.0000E+00  0.0000E+00  0.0000E+00  0.0000E+00  0.0000E+00  0.0000E+00  0.0000E+00  0.0000E+00  0.0000E+00  0.0000E+00  0.0000E+00  0.0000E+00  0.0000E+00  0.0000E+00  0.0000E+00  0.0000E+00
    -45.100  0.0000E+00  0.0000E+00  0.0000E+00  0.0000E+00  0.0000E+00  0.0000E+00  0.0000E+00  0.0000E+00  0.0000E+00  0.0000E+00  0.0000E+00  0.0000E+00  0.0000E+00  0.0000E+00  0.0000E+00  0.0000E+00  0.0000E+00  0.0000E+00
    -44.893  0.0000E+00  0.0000E+00  0.0000E+00  0.0000E+00  0.0000E+00  0.0000E+00  0.0000E+00  0.0000E+00  0.0000E+00  0.0000E+00  0.0000E+00  0.0000E+00  0.0000E+00  0.0000E+00  0.0000E+00  0.0000E+00  0.0000E+00  0.0000E+00
    -44.686  0.0000E+00  0.0000E+00  0.0000E+00  0.0000E+00  0.0000E+00  0.0000E+00  0.0000E+00  0.0000E+00  0.0000E+00  0.0000E+00  0.0000E+00  0.0000E+00  0.0000E+00  0.0000E+00  0.0000E+00  0.0000E+00  0.0000E+00  0.0000E+00
    -44.479  0.0000E+00  0.0000E+00  0.0000E+00  0.0000E+00  0.0000E+00  0.0000E+00  0.0000E+00  0.0000E+00  0.0000E+00  0.0000E+00  0.0000E+00  0.0000E+00  0.0000E+00  0.0000E+00  0.0000E+00  0.0000E+00  0.0000E+00  0.0000E+00
    -44.272  0.0000E+00  0.0000E+00  0.0000E+00  0.0000E+00  0.0000E+00  0.0000E+00  0.0000E+00  0.0000E+00  0.0000E+00  0.0000E+00  0.0000E+00  0.0000E+00  0.0000E+00  0.0000E+00  0.0000E+00  0.0000E+00  0.0000E+00  0.0000E+00
    -44.065  0.0000E+00  0.0000E+00  0.0000E+00  0.0000E+00  0.0000E+00  0.0000E+00  0.0000E+00  0.0000E+00  0.0000E+00  0.0000E+00  0.0000E+00  0.0000E+00  0.0000E+00  0.0000E+00  0.0000E+00  0.0000E+00  0.0000E+00  0.0000E+00
    -43.858  0.0000E+00  0.0000E+00  0.0000E+00  0.0000E+00  0.0000E+00  0.0000E+00  0.0000E+00  0.0000E+00  0.0000E+00  0.0000E+00  0.0000E+00  0.0000E+00  0.0000E+00  0.0000E+00  0.0000E+00  0.0000E+00  0.0000E+00  0.0000E+00
    -43.651  0.0000E+00  0.0000E+00  0.0000E+00  0.0000E+00  0.0000E+00  0.0000E+00  0.0000E+00  0.0000E+00  0.0000E+00  0.0000E+00  0.0000E+00  0.0000E+00  0.0000E+00  0.0000E+00  0.0000E+00  0.0000E+00  0.0000E+00  0.0000E+00
    -43.444  0.0000E+00  0.0000E+00  0.0000E+00  0.0000E+00  0.0000E+00  0.0000E+00  0.0000E+00  0.0000E+00  0.0000E+00  0.0000E+00  0.0000E+00  0.0000E+00  0.0000E+00  0.0000E+00  0.0000E+00  0.0000E+00  0.0000E+00  0.0000E+00
    -43.237  0.9058E-09  0.8777E-14  0.1649E-07  0.6405E-10  0.1055E-06  0.3385E-12  0.1649E-07  0.6405E-10  0.4946E-11  0.5239E-13  0.3052E-09  0.2506E-11  0.1518E-08  0.9961E-14  0.3052E-09  0.2506E-11  0.4946E-11  0.5239E-13
    -43.030  0.3820E-04  0.1428E-04  0.1713E-03  0.7146E-04  0.4448E-02  0.5507E-03  0.1713E-03  0.7146E-04  0.5139E-07  0.5845E-07  0.3170E-05  0.2796E-05  0.6402E-04  0.1615E-04  0.3170E-05  0.2796E-05  0.5139E-07  0.5845E-07
    -42.823  0.1501E-05  0.2671E-04  0.2958E-05  0.1239E-04  0.1747E-03  0.1030E-02  0.2958E-05  0.1239E-04  0.8874E-09  0.1014E-07  0.5473E-07  0.4847E-06  0.2515E-05  0.3022E-04  0.5473E-07  0.4847E-06  0.8874E-09  0.1014E-07
    -42.616  0.0000E+00  0.0000E+00  0.0000E+00  0.0000E+00  0.0000E+00  0.0000E+00  0.0000E+00  0.0000E+00  0.0000E+00  0.0000E+00  0.0000E+00  0.0000E+00  0.0000E+00  0.0000E+00  0.0000E+00  0.0000E+00  0.0000E+00  0.0000E+00
    -42.410  0.0000E+00  0.0000E+00  0.0000E+00  0.0000E+00  0.0000E+00  0.0000E+00  0.0000E+00  0.0000E+00  0.0000E+00  0.0000E+00  0.0000E+00  0.0000E+00  0.0000E+00  0.0000E+00  0.0000E+00  0.0000E+00  0.0000E+00  0.0000E+00
    -42.203  0.0000E+00  0.0000E+00  0.0000E+00  0.0000E+00  0.0000E+00  0.0000E+00  0.0000E+00  0.0000E+00  0.0000E+00  0.0000E+00  0.0000E+00  0.0000E+00  0.0000E+00  0.0000E+00  0.0000E+00  0.0000E+00  0.0000E+00  0.0000E+00
    -41.996  0.0000E+00  0.0000E+00  0.0000E+00  0.0000E+00  0.0000E+00  0.0000E+00  0.0000E+00  0.0000E+00  0.0000E+00  0.0000E+00  0.0000E+00  0.0000E+00  0.0000E+00  0.0000E+00  0.0000E+00  0.0000E+00  0.0000E+00  0.0000E+00
    -41.789  0.1156E-18  0.0000E+00  0.1067E-08  0.0000E+00  0.8165E-17  0.0000E+00  0.1067E-08  0.0000E+00  0.1172E-12  0.0000E+00  0.8114E-13  0.0000E+00  0.4568E-19  0.0000E+00  0.8114E-13  0.0000E+00  0.1172E-12  0.0000E+00
    -41.582  0.1795E-09  0.0000E+00  0.1664E+01  0.0000E+00  0.1269E-07  0.0000E+00  0.1664E+01  0.0000E+00  0.1828E-03  0.0000E+00  0.1266E-03  0.0000E+00  0.7121E-10  0.0000E+00  0.1266E-03  0.0000E+00  0.1828E-03  0.0000E+00
    -41.375  0.3309E-09  0.0000E+00  0.3073E+01  0.0000E+00  0.2341E-07  0.0000E+00  0.3073E+01  0.0000E+00  0.3375E-03  0.0000E+00  0.2337E-03  0.0000E+00  0.1314E-09  0.0000E+00  0.2337E-03  0.0000E+00  0.3375E-03  0.0000E+00
    -41.168  0.1395E-04  0.0000E+00  0.1677E-08  0.0000E+00  0.3748E+00  0.0000E+00  0.1677E-08  0.0000E+00  0.1420E-11  0.0000E+00  0.5741E-12  0.0000E+00  0.1848E-04  0.0000E+00  0.5741E-12  0.0000E+00  0.1420E-11  0.0000E+00
    -40.961  0.1627E-03  0.6817E-13  0.1955E-07  0.5052E-03  0.4371E+01  0.7385E-12  0.1955E-07  0.5052E-03  0.1657E-10  0.6511E-07  0.6695E-11  0.4263E-07  0.2155E-03  0.1936E-13  0.6695E-11  0.4263E-07  0.1657E-10  0.6511E-07
    -40.754  0.7883E-09  0.6258E-09  0.9415E-13  0.4657E+01  0.2118E-04  0.6786E-08  0.9459E-13  0.4657E+01  0.8045E-16  0.6003E-03  0.3242E-16  0.3930E-03  0.1044E-08  0.1780E-09  0.3242E-16  0.3930E-03  0.8039E-16  0.6003E-03
    -40.547  0.0000E+00  0.9974E-11  0.0000E+00  0.7444E-01  0.0000E+00  0.1082E-09  0.0000E+00  0.7444E-01  0.0000E+00  0.9594E-05  0.0000E+00  0.6281E-05  0.0000E+00  0.2839E-11  0.0000E+00  0.6281E-05  0.0000E+00  0.9594E-05
    -40.340  0.0000E+00  0.0000E+00  0.0000E+00  0.0000E+00  0.0000E+00  0.0000E+00  0.0000E+00  0.0000E+00  0.0000E+00  0.0000E+00  0.0000E+00  0.0000E+00  0.0000E+00  0.0000E+00  0.0000E+00  0.0000E+00  0.0000E+00  0.0000E+00
    -40.133  0.0000E+00  0.0000E+00  0.0000E+00  0.0000E+00  0.0000E+00  0.0000E+00  0.0000E+00  0.0000E+00  0.0000E+00  0.0000E+00  0.0000E+00  0.0000E+00  0.0000E+00  0.0000E+00  0.0000E+00  0.0000E+00  0.0000E+00  0.0000E+00
    -39.926  0.0000E+00  0.4455E-19  0.0000E+00  0.1219E-23  0.0000E+00  0.1053E-14  0.0000E+00  0.1219E-23  0.0000E+00  0.5257E-26  0.0000E+00  0.3688E-26  0.0000E+00  0.5006E-19  0.0000E+00  0.3688E-26  0.0000E+00  0.5257E-26
    -39.719  0.0000E+00  0.2329E-05  0.0000E+00  0.6383E-10  0.0000E+00  0.5503E-01  0.0000E+00  0.6383E-10  0.0000E+00  0.2744E-12  0.0000E+00  0.1930E-12  0.0000E+00  0.2618E-05  0.0000E+00  0.1930E-12  0.0000E+00  0.2744E-12
    -39.512  0.0000E+00  0.1983E-03  0.0000E+00  0.5427E-08  0.0000E+00  0.4684E+01  0.0000E+00  0.5427E-08  0.0000E+00  0.2340E-10  0.0000E+00  0.1641E-10  0.0000E+00  0.2228E-03  0.0000E+00  0.1641E-10  0.0000E+00  0.2340E-10
    -39.305  0.0000E+00  0.3394E-07  0.0000E+00  0.9277E-12  0.0000E+00  0.8020E-03  0.0000E+00  0.9277E-12  0.0000E+00  0.4017E-14  0.0000E+00  0.2806E-14  0.0000E+00  0.3814E-07  0.0000E+00  0.2806E-14  0.0000E+00  0.4017E-14
    -39.098  0.0000E+00  0.0000E+00  0.0000E+00  0.0000E+00  0.0000E+00  0.0000E+00  0.0000E+00  0.0000E+00  0.0000E+00  0.0000E+00  0.0000E+00  0.0000E+00  0.0000E+00  0.0000E+00  0.0000E+00  0.0000E+00  0.0000E+00  0.0000E+00
    -38.891  0.0000E+00  0.0000E+00  0.0000E+00  0.0000E+00  0.0000E+00  0.0000E+00  0.0000E+00  0.0000E+00  0.0000E+00  0.0000E+00  0.0000E+00  0.0000E+00  0.0000E+00  0.0000E+00  0.0000E+00  0.0000E+00  0.0000E+00  0.0000E+00
    -38.684  0.0000E+00  0.0000E+00  0.0000E+00  0.0000E+00  0.0000E+00  0.0000E+00  0.0000E+00  0.0000E+00  0.0000E+00  0.0000E+00  0.0000E+00  0.0000E+00  0.0000E+00  0.0000E+00  0.0000E+00  0.0000E+00  0.0000E+00  0.0000E+00
    -38.477  0.0000E+00  0.0000E+00  0.0000E+00  0.0000E+00  0.0000E+00  0.0000E+00  0.0000E+00  0.0000E+00  0.0000E+00  0.0000E+00  0.0000E+00  0.0000E+00  0.0000E+00  0.0000E+00  0.0000E+00  0.0000E+00  0.0000E+00  0.0000E+00
    -38.270  0.0000E+00  0.0000E+00  0.0000E+00  0.0000E+00  0.0000E+00  0.0000E+00  0.0000E+00  0.0000E+00  0.0000E+00  0.0000E+00  0.0000E+00  0.0000E+00  0.0000E+00  0.0000E+00  0.0000E+00  0.0000E+00  0.0000E+00  0.0000E+00
    -38.063  0.0000E+00  0.0000E+00  0.0000E+00  0.0000E+00  0.0000E+00  0.0000E+00  0.0000E+00  0.0000E+00  0.0000E+00  0.0000E+00  0.0000E+00  0.0000E+00  0.0000E+00  0.0000E+00  0.0000E+00  0.0000E+00  0.0000E+00  0.0000E+00
    -37.856  0.0000E+00  0.0000E+00  0.0000E+00  0.0000E+00  0.0000E+00  0.0000E+00  0.0000E+00  0.0000E+00  0.0000E+00  0.0000E+00  0.0000E+00  0.0000E+00  0.0000E+00  0.0000E+00  0.0000E+00  0.0000E+00  0.0000E+00  0.0000E+00
    -37.649  0.0000E+00  0.0000E+00  0.0000E+00  0.0000E+00  0.0000E+00  0.0000E+00  0.0000E+00  0.0000E+00  0.0000E+00  0.0000E+00  0.0000E+00  0.0000E+00  0.0000E+00  0.0000E+00  0.0000E+00  0.0000E+00  0.0000E+00  0.0000E+00
    -37.442  0.0000E+00  0.0000E+00  0.0000E+00  0.0000E+00  0.0000E+00  0.0000E+00  0.0000E+00  0.0000E+00  0.0000E+00  0.0000E+00  0.0000E+00  0.0000E+00  0.0000E+00  0.0000E+00  0.0000E+00  0.0000E+00  0.0000E+00  0.0000E+00
    -37.235  0.0000E+00  0.0000E+00  0.0000E+00  0.0000E+00  0.0000E+00  0.0000E+00  0.0000E+00  0.0000E+00  0.0000E+00  0.0000E+00  0.0000E+00  0.0000E+00  0.0000E+00  0.0000E+00  0.0000E+00  0.0000E+00  0.0000E+00  0.0000E+00
    -37.028  0.0000E+00  0.0000E+00  0.0000E+00  0.0000E+00  0.0000E+00  0.0000E+00  0.0000E+00  0.0000E+00  0.0000E+00  0.0000E+00  0.0000E+00  0.0000E+00  0.0000E+00  0.0000E+00  0.0000E+00  0.0000E+00  0.0000E+00  0.0000E+00
    -36.822  0.0000E+00  0.0000E+00  0.0000E+00  0.0000E+00  0.0000E+00  0.0000E+00  0.0000E+00  0.0000E+00  0.0000E+00  0.0000E+00  0.0000E+00  0.0000E+00  0.0000E+00  0.0000E+00  0.0000E+00  0.0000E+00  0.0000E+00  0.0000E+00
    -36.615  0.0000E+00  0.0000E+00  0.0000E+00  0.0000E+00  0.0000E+00  0.0000E+00  0.0000E+00  0.0000E+00  0.0000E+00  0.0000E+00  0.0000E+00  0.0000E+00  0.0000E+00  0.0000E+00  0.0000E+00  0.0000E+00  0.0000E+00  0.0000E+00
    -36.408  0.0000E+00  0.0000E+00  0.0000E+00  0.0000E+00  0.0000E+00  0.0000E+00  0.0000E+00  0.0000E+00  0.0000E+00  0.0000E+00  0.0000E+00  0.0000E+00  0.0000E+00  0.0000E+00  0.0000E+00  0.0000E+00  0.0000E+00  0.0000E+00
    -36.201  0.0000E+00  0.0000E+00  0.0000E+00  0.0000E+00  0.0000E+00  0.0000E+00  0.0000E+00  0.0000E+00  0.0000E+00  0.0000E+00  0.0000E+00  0.0000E+00  0.0000E+00  0.0000E+00  0.0000E+00  0.0000E+00  0.0000E+00  0.0000E+00
    -35.994  0.0000E+00  0.0000E+00  0.0000E+00  0.0000E+00  0.0000E+00  0.0000E+00  0.0000E+00  0.0000E+00  0.0000E+00  0.0000E+00  0.0000E+00  0.0000E+00  0.0000E+00  0.0000E+00  0.0000E+00  0.0000E+00  0.0000E+00  0.0000E+00
    -35.787  0.0000E+00  0.0000E+00  0.0000E+00  0.0000E+00  0.0000E+00  0.0000E+00  0.0000E+00  0.0000E+00  0.0000E+00  0.0000E+00  0.0000E+00  0.0000E+00  0.0000E+00  0.0000E+00  0.0000E+00  0.0000E+00  0.0000E+00  0.0000E+00
    -35.580  0.0000E+00  0.0000E+00  0.0000E+00  0.0000E+00  0.0000E+00  0.0000E+00  0.0000E+00  0.0000E+00  0.0000E+00  0.0000E+00  0.0000E+00  0.0000E+00  0.0000E+00  0.0000E+00  0.0000E+00  0.0000E+00  0.0000E+00  0.0000E+00