   22   22    1    2
  0.1420100E+02  0.5010501E-09  0.5010501E-09  0.1436974E-08  0.5000000E-15
  1.000000000000000E-004
  CAR 
 unknown system                          
    170    196    120
 
  0.0000000E+00  0.0000000E+00  0.0000000E+00  0.5102041E-02
      1        -43.105175      -43.067180   1.000000   1.000000
      2        -43.105172      -43.067177   1.000000   1.000000
      3        -43.105168      -43.067174   1.000000   1.000000
      4        -43.105165      -43.067170   1.000000   1.000000
      5        -43.093311      -43.016702   1.000000   1.000000
      6        -43.093247      -43.016657   1.000000   1.000000
      7        -41.567920      -40.829595   1.000000   1.000000
      8        -41.567916      -40.829592   1.000000   1.000000
      9        -41.567916      -40.829590   1.000000   1.000000
     10        -41.567912      -40.829587   1.000000   1.000000
     11        -41.117898      -39.638841   1.000000   1.000000
     12        -41.117857      -39.638820   1.000000   1.000000
     13        -25.047114      -25.047988   1.000000   1.000000
     14        -25.035542      -25.036037   1.000000   1.000000
     15        -24.556652      -24.561209   1.000000   1.000000
     16        -24.556651      -24.561208   1.000000   1.000000
     17        -24.556153      -24.560708   1.000000   1.000000
     18        -24.556152      -24.560707   1.000000   1.000000
     19        -24.414245      -24.412214   1.000000   1.000000
     20        -24.391570      -24.388890   1.000000   1.000000
     21        -23.953359      -23.955192   1.000000   1.000000
     22        -23.953358      -23.955191   1.000000   1.000000
     23        -23.952455      -23.954289   1.000000   1.000000
     24        -23.952454      -23.954288   1.000000   1.000000
     25        -23.599868      -23.582465   1.000000   1.000000
     26        -23.588315      -23.570605   1.000000   1.000000
     27        -23.305132      -23.301304   1.000000   1.000000
     28        -23.305131      -23.301303   1.000000   1.000000
     29        -23.304686      -23.300860   1.000000   1.000000
     30        -23.304685      -23.300859   1.000000   1.000000
     31         -7.862476       -7.668944   1.000000   1.000000
     32         -7.774449       -7.668943   1.000000   1.000000
     33         -7.677713       -7.668037   1.000000   1.000000
     34         -7.677712       -7.668036   1.000000   1.000000
     35         -7.677683       -7.628905   1.000000   1.000000
     36         -7.677682       -7.611153   1.000000   1.000000
     37         -7.400498       -7.292913   1.000000   1.000000
     38         -7.220290       -7.191451   1.000000   1.000000
     39         -7.126894       -7.112766   1.000000   1.000000
     40         -7.126894       -7.112766   1.000000   1.000000
     41         -7.092348       -7.078956   1.000000   1.000000
     42         -7.092348       -7.078956   1.000000   1.000000
     43         -6.543612       -6.405644   1.000000   1.000000
     44         -6.475707       -6.387081   1.000000   1.000000
     45         -6.430300       -6.387081   1.000000   1.000000
     46         -6.430299       -6.369450   1.000000   1.000000
     47         -6.401098       -6.369449   1.000000   1.000000
     48         -6.401098       -6.333087   1.000000   1.000000
     49         -6.251901       -6.171170   1.000000   1.000000
     50         -6.076410       -6.006187   1.000000   1.000000
     51         -6.076409       -6.006187   1.000000   1.000000
     52         -6.056274       -6.005798   1.000000   1.000000
     53         -6.056274       -6.005796   1.000000   1.000000
     54         -5.893139       -5.824447   1.000000   1.000000
     55         -5.567347       -5.539738   1.000000   1.000000
     56         -5.567346       -5.528725   1.000000   1.000000
     57         -5.550615       -5.515045   1.000000   1.000000
     58         -5.534289       -5.515043   1.000000   1.000000
     59         -5.523623       -5.472495   1.000000   1.000000
     60         -5.494256       -5.472495   1.000000   1.000000
     61         -5.494255       -5.288088   1.000000   1.000000
     62         -5.301722       -5.286857   1.000000   1.000000
     63         -5.294214       -5.264743   1.000000   1.000000
     64         -5.294214       -5.264742   1.000000   1.000000
     65         -5.241497       -5.136149   1.000000   1.000000
     66         -5.199919       -5.136149   1.000000   1.000000
     67         -5.199919       -4.943458   1.000000   1.000000
     68         -5.189740       -4.924435   1.000000   1.000000
     69         -4.925282       -4.924433   1.000000   1.000000
     70         -4.925280       -4.792858   1.000000   1.000000
     71         -4.805241       -4.792856   1.000000   1.000000
     72         -4.805239       -4.723922   1.000000   1.000000
     73         -4.650895       -4.676564   1.000000   1.000000
     74         -4.602889       -4.628564   1.000000   1.000000
     75         -4.284011       -4.304420   1.000000   1.000000
     76         -4.246237       -4.267004   1.000000   1.000000
     77         -4.239876       -4.238700   1.000000   1.000000
     78         -4.239873       -4.238696   1.000000   1.000000
     79         -4.232471       -4.230267   1.000000   1.000000
     80         -4.232468       -4.230264   1.000000   1.000000
     81         -4.026247       -4.003742   1.000000   1.000000
     82         -4.026245       -4.003741   1.000000   1.000000
     83         -3.994204       -3.970835   1.000000   1.000000
     84         -3.994203       -3.970833   1.000000   1.000000
     85         -1.721656       -0.821506   1.000000   0.000000
     86         -1.669847       -0.819014   1.000000   0.000000
     87         -1.003611       -0.798329   0.000000   0.000000
     88         -0.987012       -0.798328   0.000000   0.000000
     89         -0.836198       -0.782093   0.000000   0.000000
     90         -0.836197       -0.782092   0.000000   0.000000
     91         -0.817250        1.110890   0.000000   0.000000
     92         -0.817249        1.110891   0.000000   0.000000
     93          0.525278        1.117708   0.000000   0.000000
     94          0.525278        1.117709   0.000000   0.000000
     95          0.525279        1.276366   0.000000   0.000000
     96          0.525279        1.276367   0.000000   0.000000
     97          1.209503        1.277288   0.000000   0.000000
     98          1.209504        1.277289   0.000000   0.000000
     99          1.220482        2.225131   0.000000   0.000000
    100          1.220483        2.234181   0.000000   0.000000
    101          2.084657        2.557813   0.000000   0.000000
    102          2.084658        2.557814   0.000000   0.000000
    103          2.101402        2.569610   0.000000   0.000000
    104          2.101403        2.569611   0.000000   0.000000
    105          5.116852        5.166769   0.000000   0.000000
    106          6.145688        6.180088   0.000000   0.000000
    107          6.204675        6.263172   0.000000   0.000000
    108          8.490767        8.525351   0.000000   0.000000
    109          8.608890        8.671048   0.000000   0.000000
    110         11.030049       11.109570   0.000000   0.000000
    111         11.598961       11.745788   0.000000   0.000000
    112         11.889753       11.969873   0.000000   0.000000
    113         11.981508       12.054657   0.000000   0.000000
    114         12.140215       12.141237   0.000000   0.000000
    115         12.178087       12.272442   0.000000   0.000000
    116         12.466699       12.492658   0.000000   0.000000
    117         12.487884       12.516629   0.000000   0.000000
    118         12.938745       12.888150   0.000000   0.000000
    119         13.000516       12.984489   0.000000   0.000000
    120         13.203460       13.140447   0.000000   0.000000
 
  0.1724138E-01 -0.1734723E-17  0.0000000E+00  0.5102041E-02
      1        -43.105177      -43.067182   1.000000   1.000000
      2        -43.105175      -43.067179   1.000000   1.000000
      3        -43.105169      -43.067174   1.000000   1.000000
      4        -43.105166      -43.067171   1.000000   1.000000
      5        -43.093312      -43.016704   1.000000   1.000000
      6        -43.093248      -43.016659   1.000000   1.000000
      7        -41.567923      -40.829598   1.000000   1.000000
      8        -41.567920      -40.829595   1.000000   1.000000
      9        -41.567917      -40.829590   1.000000   1.000000
     10        -41.567913      -40.829587   1.000000   1.000000
     11        -41.117899      -39.638843   1.000000   1.000000
     12        -41.117858      -39.638827   1.000000   1.000000
     13        -25.046825      -25.047698   1.000000   1.000000
     14        -25.035270      -25.035765   1.000000   1.000000
     15        -24.556805      -24.561360   1.000000   1.000000
     16        -24.556712      -24.561269   1.000000   1.000000
     17        -24.556322      -24.560875   1.000000   1.000000
     18        -24.556217      -24.560772   1.000000   1.000000
     19        -24.414022      -24.411993   1.000000   1.000000
     20        -24.391383      -24.388704   1.000000   1.000000
     21        -23.953557      -23.955390   1.000000   1.000000
     22        -23.953430      -23.955263   1.000000   1.000000
     23        -23.952646      -23.954479   1.000000   1.000000
     24        -23.952520      -23.954354   1.000000   1.000000
     25        -23.599641      -23.582245   1.000000   1.000000
     26        -23.588102      -23.570399   1.000000   1.000000
     27        -23.305296      -23.301463   1.000000   1.000000
     28        -23.305234      -23.301406   1.000000   1.000000
     29        -23.304851      -23.301020   1.000000   1.000000
     30        -23.304791      -23.300965   1.000000   1.000000
     31         -7.862024       -7.669520   1.000000   1.000000
     32         -7.774167       -7.669292   1.000000   1.000000
     33         -7.678255       -7.668556   1.000000   1.000000
     34         -7.678232       -7.668192   1.000000   1.000000
     35         -7.677612       -7.628018   1.000000   1.000000
     36         -7.677525       -7.610436   1.000000   1.000000
     37         -7.400156       -7.292797   1.000000   1.000000
     38         -7.220412       -7.191713   1.000000   1.000000
     39         -7.127373       -7.113251   1.000000   1.000000
     40         -7.127025       -7.112804   1.000000   1.000000
     41         -7.092810       -7.079426   1.000000   1.000000
     42         -7.092646       -7.079150   1.000000   1.000000
     43         -6.544022       -6.409382   1.000000   1.000000
     44         -6.475038       -6.387606   1.000000   1.000000
     45         -6.430765       -6.382776   1.000000   1.000000
     46         -6.429473       -6.370823   1.000000   1.000000
     47         -6.401456       -6.369483   1.000000   1.000000
     48         -6.401285       -6.330965   1.000000   1.000000
     49         -6.251574       -6.170938   1.000000   1.000000
     50         -6.076776       -6.007042   1.000000   1.000000
     51         -6.075843       -6.006983   1.000000   1.000000
     52         -6.056437       -6.004792   1.000000   1.000000
     53         -6.055457       -6.004780   1.000000   1.000000
     54         -5.893790       -5.825049   1.000000   1.000000
     55         -5.569662       -5.538675   1.000000   1.000000
     56         -5.568008       -5.527414   1.000000   1.000000
     57         -5.549251       -5.516218   1.000000   1.000000
     58         -5.533219       -5.515709   1.000000   1.000000
     59         -5.522447       -5.472383   1.000000   1.000000
     60         -5.494274       -5.472326   1.000000   1.000000
     61         -5.494101       -5.294906   1.000000   1.000000
     62         -5.303950       -5.288583   1.000000   1.000000
     63         -5.296048       -5.264923   1.000000   1.000000
     64         -5.294290       -5.257293   1.000000   1.000000
     65         -5.244026       -5.137009   1.000000   1.000000
     66         -5.200650       -5.133663   1.000000   1.000000
     67         -5.194359       -4.943234   1.000000   1.000000
     68         -5.186886       -4.925493   1.000000   1.000000
     69         -4.926154       -4.924756   1.000000   1.000000
     70         -4.925554       -4.793639   1.000000   1.000000
     71         -4.805892       -4.793229   1.000000   1.000000
     72         -4.805832       -4.723750   1.000000   1.000000
     73         -4.649279       -4.674732   1.000000   1.000000
     74         -4.601313       -4.626717   1.000000   1.000000
     75         -4.283318       -4.303665   1.000000   1.000000
     76         -4.246973       -4.266561   1.000000   1.000000
     77         -4.241327       -4.240153   1.000000   1.000000
     78         -4.238550       -4.238499   1.000000   1.000000
     79         -4.233618       -4.231412   1.000000   1.000000
     80         -4.232306       -4.230205   1.000000   1.000000
     81         -4.027086       -4.004538   1.000000   1.000000
     82         -4.026319       -4.003876   1.000000   1.000000
     83         -3.995037       -3.971607   1.000000   1.000000
     84         -3.994365       -3.971027   1.000000   1.000000
     85         -1.721440       -0.821402   1.000000   0.000000
     86         -1.669667       -0.818952   1.000000   0.000000
     87         -1.003468       -0.798537   0.000000   0.000000
     88         -0.986797       -0.798245   0.000000   0.000000
     89         -0.836406       -0.782309   0.000000   0.000000
     90         -0.836218       -0.782068   0.000000   0.000000
     91         -0.817466        1.110651   0.000000   0.000000
     92         -0.817264        1.110682   0.000000   0.000000
     93          0.524828        1.117481   0.000000   0.000000
     94          0.524853        1.117585   0.000000   0.000000
     95          0.525283        1.276088   0.000000   0.000000
     96          0.525311        1.276145   0.000000   0.000000
     97          1.209427        1.277398   0.000000   0.000000
     98          1.209481        1.277408   0.000000   0.000000
     99          1.220366        2.225105   0.000000   0.000000
    100          1.220468        2.234183   0.000000   0.000000
    101          2.084564        2.557792   0.000000   0.000000
    102          2.084644        2.557811   0.000000   0.000000
    103          2.101132        2.569467   0.000000   0.000000
    104          2.101399        2.569616   0.000000   0.000000
    105          5.120480        5.170372   0.000000   0.000000
    106          6.149033        6.183382   0.000000   0.000000
    107          6.207779        6.266310   0.000000   0.000000
    108          8.493367        8.527944   0.000000   0.000000
    109          8.611406        8.673586   0.000000   0.000000
    110         11.033057       11.112711   0.000000   0.000000
    111         11.595289       11.744251   0.000000   0.000000
    112         11.874614       11.962725   0.000000   0.000000
    113         11.973791       12.047104   0.000000   0.000000
    114         12.127930       12.128808   0.000000   0.000000
    115         12.174124       12.257961   0.000000   0.000000
    116         12.446365       12.486532   0.000000   0.000000
    117         12.519631       12.580841   0.000000   0.000000
    118         12.864988       12.897150   0.000000   0.000000
    119         12.972905       13.007856   0.000000   0.000000
    120         13.057857       13.190518   0.000000   0.000000
 
  0.3448276E-01 -0.3469447E-17  0.0000000E+00  0.5102041E-02
      1        -43.105181      -43.067186   1.000000   1.000000
      2        -43.105177      -43.067182   1.000000   1.000000
      3        -43.105174      -43.067180   1.000000   1.000000
      4        -43.105170      -43.067175   1.000000   1.000000
      5        -43.093312      -43.016704   1.000000   1.000000
      6        -43.093249      -43.016660   1.000000   1.000000
      7        -41.567927      -40.829603   1.000000   1.000000
      8        -41.567923      -40.829599   1.000000   1.000000
      9        -41.567922      -40.829597   1.000000   1.000000
     10        -41.567918      -40.829591   1.000000   1.000000
     11        -41.117900      -39.638844   1.000000   1.000000
     12        -41.117857      -39.638827   1.000000   1.000000
     13        -25.045958      -25.046831   1.000000   1.000000
     14        -25.034427      -25.034922   1.000000   1.000000
     15        -24.557271      -24.561819   1.000000   1.000000
     16        -24.556900      -24.561458   1.000000   1.000000
     17        -24.556819      -24.561363   1.000000   1.000000
     18        -24.556398      -24.560953   1.000000   1.000000
     19        -24.413342      -24.411317   1.000000   1.000000
     20        -24.390798      -24.388122   1.000000   1.000000
     21        -23.954149      -23.955979   1.000000   1.000000
     22        -23.953649      -23.955481   1.000000   1.000000
     23        -23.953218      -23.955049   1.000000   1.000000
     24        -23.952733      -23.954566   1.000000   1.000000
     25        -23.598958      -23.581583   1.000000   1.000000
     26        -23.587460      -23.569779   1.000000   1.000000
     27        -23.305782      -23.301933   1.000000   1.000000
     28        -23.305540      -23.301713   1.000000   1.000000
     29        -23.305331      -23.301484   1.000000   1.000000
     30        -23.305089      -23.301263   1.000000   1.000000
     31         -7.860656       -7.671137   1.000000   1.000000
     32         -7.773286       -7.670845   1.000000   1.000000
     33         -7.679260       -7.669501   1.000000   1.000000
     34         -7.679222       -7.668750   1.000000   1.000000
     35         -7.678100       -7.625477   1.000000   1.000000
     36         -7.677626       -7.608293   1.000000   1.000000
     37         -7.399080       -7.292429   1.000000   1.000000
     38         -7.220681       -7.192406   1.000000   1.000000
     39         -7.128786       -7.114666   1.000000   1.000000
     40         -7.127261       -7.112768   1.000000   1.000000
     41         -7.094174       -7.080802   1.000000   1.000000
     42         -7.093494       -7.079694   1.000000   1.000000
     43         -6.545126       -6.416027   1.000000   1.000000
     44         -6.473180       -6.389557   1.000000   1.000000
     45         -6.432023       -6.377100   1.000000   1.000000
     46         -6.427397       -6.373679   1.000000   1.000000
     47         -6.402517       -6.366978   1.000000   1.000000
     48         -6.401599       -6.325564   1.000000   1.000000
     49         -6.250650       -6.170220   1.000000   1.000000
     50         -6.077876       -6.008395   1.000000   1.000000
     51         -6.074126       -6.008040   1.000000   1.000000
     52         -6.056960       -6.003359   1.000000   1.000000
     53         -6.053058       -6.002749   1.000000   1.000000
     54         -5.895629       -5.826647   1.000000   1.000000
     55         -5.575318       -5.535529   1.000000   1.000000
     56         -5.569894       -5.523697   1.000000   1.000000
     57         -5.546097       -5.519591   1.000000   1.000000
     58         -5.530050       -5.517571   1.000000   1.000000
     59         -5.519163       -5.471994   1.000000   1.000000
     60         -5.494305       -5.471846   1.000000   1.000000
     61         -5.493473       -5.306333   1.000000   1.000000
     62         -5.310416       -5.293535   1.000000   1.000000
     63         -5.300828       -5.265198   1.000000   1.000000
     64         -5.294163       -5.243827   1.000000   1.000000
     65         -5.248778       -5.139441   1.000000   1.000000
     66         -5.202964       -5.126559   1.000000   1.000000
     67         -5.180949       -4.942480   1.000000   1.000000
     68         -5.178785       -4.928599   1.000000   1.000000
     69         -4.928736       -4.925686   1.000000   1.000000
     70         -4.926370       -4.795885   1.000000   1.000000
     71         -4.807823       -4.794324   1.000000   1.000000
     72         -4.807556       -4.723255   1.000000   1.000000
     73         -4.644598       -4.669427   1.000000   1.000000
     74         -4.596648       -4.621285   1.000000   1.000000
     75         -4.281346       -4.301467   1.000000   1.000000
     76         -4.248599       -4.265461   1.000000   1.000000
     77         -4.245574       -4.244450   1.000000   1.000000
     78         -4.237799       -4.237964   1.000000   1.000000
     79         -4.234378       -4.234509   1.000000   1.000000
     80         -4.231741       -4.229948   1.000000   1.000000
     81         -4.029594       -4.006908   1.000000   1.000000
     82         -4.026528       -4.004273   1.000000   1.000000
     83         -3.997478       -3.973871   1.000000   1.000000
     84         -3.994803       -3.971563   1.000000   1.000000
     85         -1.720772       -0.821089   1.000000   0.000000
     86         -1.669128       -0.818765   1.000000   0.000000
     87         -1.003037       -0.799163   0.000000   0.000000
     88         -0.986150       -0.798000   0.000000   0.000000
     89         -0.837029       -0.782953   0.000000   0.000000
     90         -0.836284       -0.781990   0.000000   0.000000
     91         -0.818113        1.109925   0.000000   0.000000
     92         -0.817304        1.110061   0.000000   0.000000
     93          0.523931        1.116810   0.000000   0.000000
     94          0.524027        1.117212   0.000000   0.000000
     95          0.524853        1.275452   0.000000   0.000000
     96          0.524966        1.275638   0.000000   0.000000
     97          1.209200        1.277572   0.000000   0.000000
     98          1.209417        1.277577   0.000000   0.000000
     99          1.220023        2.225037   0.000000   0.000000
    100          1.220429        2.234194   0.000000   0.000000
    101          2.084288        2.557732   0.000000   0.000000
    102          2.084604        2.557807   0.000000   0.000000
    103          2.100332        2.569040   0.000000   0.000000
    104          2.101390        2.569635   0.000000   0.000000
    105          5.131345        5.181163   0.000000   0.000000
    106          6.159082        6.193276   0.000000   0.000000
    107          6.217085        6.275719   0.000000   0.000000
    108          8.501176        8.535736   0.000000   0.000000
    109          8.618975        8.681217   0.000000   0.000000
    110         11.041560       11.121958   0.000000   0.000000
    111         11.585399       11.734495   0.000000   0.000000
    112         11.833975       11.928760   0.000000   0.000000
    113         11.937915       11.992731   0.000000   0.000000
    114         12.103896       12.104397   0.000000   0.000000
    115         12.151435       12.227011   0.000000   0.000000
    116         12.426242       12.452620   0.000000   0.000000
    117         12.459760       12.524743   0.000000   0.000000
    118         12.821012       12.796572   0.000000   0.000000
    119         13.001485       13.014051   0.000000   0.000000
    120         13.073964       13.142511   0.000000   0.000000
 
  0.5172414E-01  0.0000000E+00  0.0000000E+00  0.5102041E-02
      1        -43.105187      -43.067192   1.000000   1.000000
      2        -43.105182      -43.067187   1.000000   1.000000
      3        -43.105179      -43.067184   1.000000   1.000000
      4        -43.105174      -43.067179   1.000000   1.000000
      5        -43.093311      -43.016703   1.000000   1.000000
      6        -43.093248      -43.016659   1.000000   1.000000
      7        -41.567932      -40.829612   1.000000   1.000000
      8        -41.567931      -40.829607   1.000000   1.000000
      9        -41.567925      -40.829600   1.000000   1.000000
     10        -41.567922      -40.829596   1.000000   1.000000
     11        -41.117899      -39.638843   1.000000   1.000000
     12        -41.117855      -39.638826   1.000000   1.000000
     13        -25.044513      -25.045384   1.000000   1.000000
     14        -25.033017      -25.033512   1.000000   1.000000
     15        -24.558036      -24.562574   1.000000   1.000000
     16        -24.557636      -24.562167   1.000000   1.000000
     17        -24.557196      -24.561754   1.000000   1.000000
     18        -24.556692      -24.561248   1.000000   1.000000
     19        -24.412220      -24.410202   1.000000   1.000000
     20        -24.389825      -24.387156   1.000000   1.000000
     21        -23.955119      -23.956947   1.000000   1.000000
     22        -23.954228      -23.956056   1.000000   1.000000
     23        -23.953942      -23.955774   1.000000   1.000000
     24        -23.953073      -23.954906   1.000000   1.000000
     25        -23.597824      -23.580483   1.000000   1.000000
     26        -23.586394      -23.568748   1.000000   1.000000
     27        -23.306585      -23.302710   1.000000   1.000000
     28        -23.306124      -23.302250   1.000000   1.000000
     29        -23.306029      -23.302202   1.000000   1.000000
     30        -23.305573      -23.301748   1.000000   1.000000
     31         -7.858376       -7.673607   1.000000   1.000000
     32         -7.771821       -7.673485   1.000000   1.000000
     33         -7.680867       -7.670636   1.000000   1.000000
     34         -7.680545       -7.669706   1.000000   1.000000
     35         -7.679183       -7.621624   1.000000   1.000000
     36         -7.677880       -7.604913   1.000000   1.000000
     37         -7.397297       -7.291840   1.000000   1.000000
     38         -7.221152       -7.193575   1.000000   1.000000
     39         -7.131095       -7.116916   1.000000   1.000000
     40         -7.127436       -7.112527   1.000000   1.000000
     41         -7.096390       -7.082995   1.000000   1.000000
     42         -7.094670       -7.080400   1.000000   1.000000
     43         -6.546715       -6.422491   1.000000   1.000000
     44         -6.470584       -6.393726   1.000000   1.000000
     45         -6.433659       -6.377813   1.000000   1.000000
     46         -6.425303       -6.376015   1.000000   1.000000
     47         -6.404343       -6.357382   1.000000   1.000000
     48         -6.401136       -6.318345   1.000000   1.000000
     49         -6.249211       -6.168959   1.000000   1.000000
     50         -6.079635       -6.010468   1.000000   1.000000
     51         -6.071167       -6.009007   1.000000   1.000000
     52         -6.057752       -6.001469   1.000000   1.000000
     53         -6.049016       -5.999525   1.000000   1.000000
     54         -5.898560       -5.829159   1.000000   1.000000
     55         -5.583085       -5.530477   1.000000   1.000000
     56         -5.572913       -5.525630   1.000000   1.000000
     57         -5.542446       -5.520368   1.000000   1.000000
     58         -5.524878       -5.517314   1.000000   1.000000
     59         -5.514359       -5.471207   1.000000   1.000000
     60         -5.494417       -5.471180   1.000000   1.000000
     61         -5.491804       -5.317279   1.000000   1.000000
     62         -5.320073       -5.301102   1.000000   1.000000
     63         -5.307176       -5.265220   1.000000   1.000000
     64         -5.293587       -5.229646   1.000000   1.000000
     65         -5.253027       -5.143133   1.000000   1.000000
     66         -5.206779       -5.115782   1.000000   1.000000
     67         -5.166839       -4.941266   1.000000   1.000000
     68         -5.163609       -4.933619   1.000000   1.000000
     69         -4.933012       -4.927036   1.000000   1.000000
     70         -4.927656       -4.799342   1.000000   1.000000
     71         -4.810990       -4.796102   1.000000   1.000000
     72         -4.810271       -4.722486   1.000000   1.000000
     73         -4.636922       -4.660780   1.000000   1.000000
     74         -4.589080       -4.612578   1.000000   1.000000
     75         -4.278470       -4.298061   1.000000   1.000000
     76         -4.252473       -4.264211   1.000000   1.000000
     77         -4.250649       -4.251478   1.000000   1.000000
     78         -4.243361       -4.241156   1.000000   1.000000
     79         -4.230561       -4.234868   1.000000   1.000000
     80         -4.229368       -4.229376   1.000000   1.000000
     81         -4.033684       -4.010783   1.000000   1.000000
     82         -4.026835       -4.004903   1.000000   1.000000
     83         -4.001455       -3.977568   1.000000   1.000000
     84         -3.995504       -3.972439   1.000000   1.000000
     85         -1.719672       -0.820581   1.000000   0.000000
     86         -1.668239       -0.818470   1.000000   0.000000
     87         -1.002321       -0.800193   0.000000   0.000000
     88         -0.985086       -0.797591   0.000000   0.000000
     89         -0.838059       -0.784014   0.000000   0.000000
     90         -0.836395       -0.781859   0.000000   0.000000
     91         -0.819181        1.108695   0.000000   0.000000
     92         -0.817371        1.109052   0.000000   0.000000
     93          0.522591        1.115730   0.000000   0.000000
     94          0.522797        1.116582   0.000000   0.000000
     95          0.523994        1.274600   0.000000   0.000000
     96          0.524257        1.274976   0.000000   0.000000
     97          1.208834        1.277649   0.000000   0.000000
     98          1.209308        1.277712   0.000000   0.000000
     99          1.219467        2.224928   0.000000   0.000000
    100          1.220360        2.234212   0.000000   0.000000
    101          2.083844        2.557637   0.000000   0.000000