 ----------------------------------------------------
    OOO  PPPP  EEEEE N   N M   M PPPP
   O   O P   P E     NN  N MM MM P   P
   O   O PPPP  EEEEE N N N M M M PPPP   -- VERSION
   O   O P     E     N  NN M   M P
    OOO  P     EEEEE N   N M   M P
 ----------------------------------------------------
 running   16 mpi-ranks, with    1 threads/rank
 distrk:  each k-point on   16 cores,    1 groups
 distr:  one band on    4 cores,    4 groups
 vasp.6.3.0 20Jan22 (build Jan 28 2022 00:43:23) complex                        
  
 POSCAR found type information on POSCAR V F 
 POSCAR found :  2 types and      22 ions
 scaLAPACK will be used
 LDA part: xc-table for Pade appr. of Perdew
 WARNING: stress and forces are not correct
 POSCAR, INCAR and KPOINTS ok, starting setup
 FFT: planning ... GRIDC
 FFT: planning ... GRID_SOFT
 FFT: planning ... GRID
 WAVECAR not read
 charge-density read from file: unknown                                 
 magnetization density read from file 1
 entering main loop
       N       E                     dE             d eps       ncg     rms          rms(c)
DAV:   1     0.198257267009E+04    0.19826E+04   -0.10258E+05 97096   0.160E+03
DAV:   2     0.732855703730E+02   -0.19093E+04   -0.17939E+04100624   0.443E+02
DAV:   3    -0.111615944767E+03   -0.18490E+03   -0.17851E+03103320   0.152E+02
DAV:   4    -0.115768193472E+03   -0.41522E+01   -0.41344E+01103920   0.263E+01
DAV:   5    -0.115839252471E+03   -0.71059E-01   -0.71009E-01104432   0.346E+00
RMM:   6    -0.115840664805E+03   -0.14123E-02   -0.14123E-02103313   0.540E-01
RMM:   7    -0.115841066313E+03   -0.40151E-03   -0.37179E-03125751   0.234E-01
RMM:   8    -0.115841120398E+03   -0.54086E-04   -0.57004E-04130863   0.902E-02
RMM:   9    -0.115841122134E+03   -0.17359E-05   -0.21235E-05115860   0.133E-02
WARNING in EDDRMM: call to ZHEGV failed, returncode =   8  4     30
RMM:  10    -0.115841122338E+03   -0.20390E-06   -0.25812E-06 79143   0.569E-03
   1 F= -.11759430E+03 E0= -.11759430E+03  d E =-.488182E-12  mag=     2.0000
