  80  80   0   0
  0.1775400E+02  0.1124075E-08  0.1124075E-08  0.1124075E-08  0.5000000E-15
  1.000000000000000E-004
  CAR 
 unknown system                          
     11.01512703    -15.22231343  301      4.29178291      1.00000000
    -15.222  0.0000E+00  0.0000E+00
    -15.135  0.0000E+00  0.0000E+00
    -15.047  0.0000E+00  0.0000E+00
    -14.960  0.0000E+00  0.0000E+00
    -14.872  0.0000E+00  0.0000E+00
    -14.785  0.0000E+00  0.0000E+00
    -14.698  0.0000E+00  0.0000E+00
    -14.610  0.0000E+00  0.0000E+00
    -14.523  0.0000E+00  0.0000E+00
    -14.435  0.0000E+00  0.0000E+00
    -14.348  0.0000E+00  0.0000E+00
    -14.260  0.2947E-10  0.2577E-11
    -14.173  0.2194E-04  0.1919E-05
    -14.085  0.5327E-01  0.4661E-02
    -13.998  0.2098E+01  0.1881E+00
    -13.910  0.1110E+02  0.1159E+01
    -13.823  0.1445E+02  0.2423E+01
    -13.736  0.3441E+02  0.5433E+01
    -13.648  0.2167E+02  0.7328E+01
    -13.561  0.7900E+01  0.8019E+01
    -13.473  0.1540E+02  0.9366E+01
    -13.386  0.3613E+02  0.1253E+02
    -13.298  0.3855E+02  0.1590E+02
    -13.211  0.3793E+02  0.1921E+02
    -13.123  0.5384E+02  0.2392E+02
    -13.036  0.5891E+02  0.2908E+02
    -12.948  0.6175E+02  0.3448E+02
    -12.861  0.5992E+02  0.3972E+02
    -12.773  0.6412E+02  0.4533E+02
    -12.686  0.4435E+02  0.4920E+02
    -12.599  0.6430E+02  0.5483E+02
    -12.511  0.8706E+02  0.6244E+02
    -12.424  0.1232E+03  0.7322E+02
    -12.336  0.1116E+03  0.8298E+02
    -12.249  0.1159E+03  0.9312E+02
    -12.161  0.3251E+02  0.9596E+02
    -12.074  0.4660E+00  0.9600E+02
    -11.986  0.1012E-03  0.9600E+02
    -11.899  0.1172E-09  0.9600E+02
    -11.811  0.0000E+00  0.9600E+02
    -11.724  0.0000E+00  0.9600E+02
    -11.637  0.0000E+00  0.9600E+02
    -11.549  0.0000E+00  0.9600E+02
    -11.462  0.0000E+00  0.9600E+02
    -11.374  0.0000E+00  0.9600E+02
    -11.287  0.0000E+00  0.9600E+02
    -11.199  0.0000E+00  0.9600E+02
    -11.112  0.0000E+00  0.9600E+02
    -11.024  0.0000E+00  0.9600E+02
    -10.937  0.0000E+00  0.9600E+02
    -10.849  0.0000E+00  0.9600E+02
    -10.762  0.0000E+00  0.9600E+02
    -10.674  0.0000E+00  0.9600E+02
    -10.587  0.0000E+00  0.9600E+02
    -10.500  0.0000E+00  0.9600E+02
    -10.412  0.0000E+00  0.9600E+02
    -10.325  0.0000E+00  0.9600E+02
    -10.237  0.0000E+00  0.9600E+02
    -10.150  0.0000E+00  0.9600E+02
    -10.062  0.0000E+00  0.9600E+02
     -9.975  0.0000E+00  0.9600E+02
     -9.887  0.0000E+00  0.9600E+02
     -9.800  0.0000E+00  0.9600E+02
     -9.712  0.0000E+00  0.9600E+02
     -9.625  0.0000E+00  0.9600E+02
     -9.538  0.0000E+00  0.9600E+02
     -9.450  0.0000E+00  0.9600E+02
     -9.363  0.0000E+00  0.9600E+02
     -9.275  0.0000E+00  0.9600E+02
     -9.188  0.0000E+00  0.9600E+02
     -9.100  0.0000E+00  0.9600E+02
     -9.013  0.0000E+00  0.9600E+02
     -8.925  0.0000E+00  0.9600E+02
     -8.838  0.0000E+00  0.9600E+02
     -8.750  0.0000E+00  0.9600E+02
     -8.663  0.0000E+00  0.9600E+02
     -8.575  0.0000E+00  0.9600E+02
     -8.488  0.0000E+00  0.9600E+02
     -8.401  0.0000E+00  0.9600E+02
     -8.313  0.0000E+00  0.9600E+02
     -8.226  0.0000E+00  0.9600E+02
     -8.138  0.0000E+00  0.9600E+02
     -8.051  0.0000E+00  0.9600E+02
     -7.963  0.0000E+00  0.9600E+02
     -7.876  0.0000E+00  0.9600E+02
     -7.788  0.0000E+00  0.9600E+02
     -7.701  0.0000E+00  0.9600E+02
     -7.613  0.0000E+00  0.9600E+02
     -7.526  0.0000E+00  0.9600E+02
     -7.439  0.0000E+00  0.9600E+02
     -7.351  0.0000E+00  0.9600E+02
     -7.264  0.0000E+00  0.9600E+02
     -7.176  0.0000E+00  0.9600E+02
     -7.089  0.0000E+00  0.9600E+02
     -7.001  0.0000E+00  0.9600E+02
     -6.914  0.0000E+00  0.9600E+02
     -6.826  0.0000E+00  0.9600E+02
     -6.739  0.0000E+00  0.9600E+02
     -6.651  0.0000E+00  0.9600E+02
     -6.564  0.0000E+00  0.9600E+02
     -6.476  0.0000E+00  0.9600E+02
     -6.389  0.0000E+00  0.9600E+02
     -6.302  0.0000E+00  0.9600E+02
     -6.214  0.0000E+00  0.9600E+02
     -6.127  0.7880E-09  0.9600E+02
     -6.039  0.3216E-03  0.9600E+02
     -5.952  0.5158E+00  0.9605E+02
     -5.864  0.1539E+02  0.9739E+02
     -5.777  0.5800E+02  0.1025E+03
     -5.689  0.6748E+02  0.1084E+03
     -5.602  0.4401E+02  0.1122E+03
     -5.514  0.5607E+02  0.1171E+03
     -5.427  0.3359E+02  0.1201E+03
     -5.340  0.5127E+02  0.1245E+03
     -5.252  0.5570E+02  0.1294E+03
     -5.165  0.5226E+02  0.1340E+03
     -5.077  0.5440E+02  0.1387E+03
     -4.990  0.5202E+02  0.1433E+03
     -4.902  0.8084E+01  0.1440E+03
     -4.815  0.5165E-01  0.1440E+03
     -4.727  0.5426E+00  0.1440E+03
     -4.640  0.2863E+00  0.1441E+03
     -4.552  0.3989E+00  0.1441E+03
     -4.465  0.3974E+01  0.1445E+03
     -4.378  0.4605E+01  0.1449E+03
     -4.290  0.6510E+01  0.1454E+03
     -4.203  0.1222E+02  0.1465E+03
     -4.115  0.3025E+02  0.1491E+03
     -4.028  0.2629E+02  0.1514E+03
     -3.940  0.6170E+01  0.1520E+03
     -3.853  0.1220E+01  0.1521E+03
     -3.765  0.1013E+02  0.1530E+03
     -3.678  0.1036E+02  0.1539E+03
     -3.590  0.1294E+02  0.1550E+03
     -3.503  0.2677E+02  0.1574E+03
     -3.415  0.7040E+01  0.1580E+03
     -3.328  0.4437E+01  0.1584E+03
     -3.241  0.6209E+01  0.1589E+03
     -3.153  0.6888E+01  0.1595E+03
     -3.066  0.4151E+01  0.1599E+03
     -2.978  0.1076E+01  0.1600E+03
     -2.891  0.4647E+00  0.1600E+03
     -2.803  0.8409E-02  0.1600E+03
     -2.716  0.6630E-06  0.1600E+03
     -2.628  0.1452E-12  0.1600E+03
     -2.541  0.0000E+00  0.1600E+03
     -2.453  0.0000E+00  0.1600E+03
     -2.366  0.0000E+00  0.1600E+03
     -2.279  0.0000E+00  0.1600E+03
     -2.191  0.0000E+00  0.1600E+03
     -2.104  0.0000E+00  0.1600E+03
     -2.016  0.0000E+00  0.1600E+03
     -1.929  0.0000E+00  0.1600E+03
     -1.841  0.0000E+00  0.1600E+03
     -1.754  0.0000E+00  0.1600E+03
     -1.666  0.0000E+00  0.1600E+03
     -1.579  0.0000E+00  0.1600E+03
     -1.491  0.0000E+00  0.1600E+03
     -1.404  0.0000E+00  0.1600E+03
     -1.316  0.0000E+00  0.1600E+03
     -1.229  0.0000E+00  0.1600E+03
     -1.142  0.0000E+00  0.1600E+03
     -1.054  0.0000E+00  0.1600E+03
     -0.967  0.0000E+00  0.1600E+03
     -0.879  0.4252E-10  0.1600E+03
     -0.792  0.9555E-04  0.1600E+03
     -0.704  0.7527E+00  0.1601E+03
     -0.617  0.4020E+02  0.1636E+03
     -0.529  0.4941E+02  0.1679E+03
     -0.442  0.2674E+02  0.1702E+03
     -0.354  0.4499E+02  0.1742E+03
     -0.267  0.4309E+02  0.1779E+03
     -0.180  0.6633E+02  0.1837E+03
     -0.092  0.6277E+02  0.1892E+03
     -0.005  0.7995E+02  0.1962E+03
      0.083  0.7335E+02  0.2026E+03
      0.170  0.5044E+02  0.2071E+03
      0.258  0.3962E+02  0.2105E+03
      0.345  0.4383E+02  0.2144E+03
      0.433  0.4359E+02  0.2182E+03
      0.520  0.5245E+02  0.2228E+03
      0.608  0.5509E+02  0.2276E+03
      0.695  0.4965E+02  0.2319E+03
      0.783  0.7150E+02  0.2382E+03
      0.870  0.6547E+02  0.2439E+03
      0.957  0.7111E+02  0.2501E+03
      1.045  0.4493E+02  0.2540E+03
      1.132  0.4010E+02  0.2575E+03
      1.220  0.3279E+02  0.2604E+03
      1.307  0.4336E+02  0.2642E+03
      1.395  0.2366E+02  0.2663E+03
      1.482  0.4828E+02  0.2705E+03
      1.570  0.6910E+02  0.2765E+03
      1.657  0.5141E+02  0.2810E+03
      1.745  0.5559E+02  0.2859E+03
      1.832  0.6322E+02  0.2914E+03
      1.919  0.5867E+02  0.2966E+03
      2.007  0.5628E+02  0.3015E+03
      2.094  0.7964E+02  0.3084E+03
      2.182  0.7569E+02  0.3151E+03
      2.269  0.7123E+02  0.3213E+03
      2.357  0.7741E+02  0.3281E+03
      2.444  0.7132E+02  0.3343E+03
      2.532  0.8029E+02  0.3413E+03
      2.619  0.1032E+03  0.3504E+03
      2.707  0.1219E+03  0.3610E+03
      2.794  0.1143E+03  0.3710E+03
      2.882  0.9443E+02  0.3793E+03
      2.969  0.7050E+02  0.3854E+03
      3.056  0.1280E+02  0.3866E+03
      3.144  0.3111E+02  0.3893E+03
      3.231  0.1886E+02  0.3909E+03
      3.319  0.3923E+02  0.3944E+03
      3.406  0.4551E+02  0.3983E+03
      3.494  0.2690E+02  0.4007E+03
      3.581  0.3702E+02  0.4039E+03
      3.669  0.7505E+02  0.4105E+03
      3.756  0.1123E+03  0.4203E+03
      3.844  0.8295E+02  0.4276E+03
      3.931  0.8790E+02  0.4353E+03
      4.018  0.1103E+03  0.4449E+03
      4.106  0.3427E+02  0.4479E+03
      4.193  0.1171E+01  0.4480E+03
      4.281  0.6910E-03  0.4480E+03
      4.368  0.1915E-08  0.4480E+03
      4.456  0.0000E+00  0.4480E+03
      4.543  0.0000E+00  0.4480E+03
      4.631  0.0000E+00  0.4480E+03
      4.718  0.0000E+00  0.4480E+03
      4.806  0.0000E+00  0.4480E+03
      4.893  0.0000E+00  0.4480E+03
      4.981  0.0000E+00  0.4480E+03
      5.068  0.0000E+00  0.4480E+03
      5.155  0.0000E+00  0.4480E+03
      5.243  0.0000E+00  0.4480E+03
      5.330  0.0000E+00  0.4480E+03
      5.418  0.0000E+00  0.4480E+03
      5.505  0.0000E+00  0.4480E+03
      5.593  0.0000E+00  0.4480E+03
      5.680  0.0000E+00  0.4480E+03
      5.768  0.0000E+00  0.4480E+03
      5.855  0.0000E+00  0.4480E+03
      5.943  0.0000E+00  0.4480E+03
      6.030  0.0000E+00  0.4480E+03
      6.117  0.0000E+00  0.4480E+03
      6.205  0.5593E-08  0.4480E+03
      6.292  0.1148E-02  0.4480E+03
      6.380  0.8091E+00  0.4481E+03
      6.467  0.8908E+01  0.4488E+03
      6.555  0.1986E+02  0.4506E+03
      6.642  0.2273E+02  0.4526E+03
      6.730  0.2776E+02  0.4550E+03
      6.817  0.2554E+02  0.4572E+03
      6.905  0.2131E+02  0.4591E+03
      6.992  0.3018E+02  0.4617E+03
      7.080  0.8489E+01  0.4625E+03
      7.167  0.4210E+02  0.4662E+03
      7.254  0.3286E+02  0.4690E+03
      7.342  0.3258E+02  0.4719E+03
      7.429  0.4146E+02  0.4755E+03
      7.517  0.1814E+02  0.4771E+03
      7.604  0.1565E+02  0.4785E+03
      7.692  0.4134E+02  0.4821E+03
      7.779  0.5059E+02  0.4865E+03
      7.867  0.2699E+02  0.4889E+03
      7.954  0.1455E+02  0.4901E+03
      8.042  0.2960E+02  0.4927E+03
      8.129  0.2978E+02  0.4953E+03
      8.216  0.2274E+02  0.4973E+03
      8.304  0.2387E+02  0.4994E+03
      8.391  0.2656E+02  0.5017E+03
      8.479  0.3776E+02  0.5050E+03
      8.566  0.3904E+02  0.5085E+03
      8.654  0.3173E+02  0.5112E+03
      8.741  0.4192E+02  0.5149E+03
      8.829  0.2406E+02  0.5170E+03
      8.916  0.2970E+02  0.5196E+03
      9.004  0.3176E+02  0.5224E+03
      9.091  0.4049E+02  0.5259E+03
      9.179  0.4036E+02  0.5294E+03
      9.266  0.2243E+02  0.5314E+03
      9.353  0.3230E+02  0.5342E+03
      9.441  0.3615E+02  0.5374E+03
      9.528  0.2526E+02  0.5396E+03
      9.616  0.1380E+02  0.5408E+03
      9.703  0.2168E+02  0.5427E+03
      9.791  0.1016E+02  0.5436E+03
      9.878  0.4374E+01  0.5440E+03
      9.966  0.2992E+00  0.5440E+03
     10.053  0.1317E-03  0.5440E+03
     10.141  0.1769E-09  0.5440E+03
     10.228  0.0000E+00  0.5440E+03
     10.315  0.0000E+00  0.5440E+03
     10.403  0.0000E+00  0.5440E+03
     10.490  0.0000E+00  0.5440E+03
     10.578  0.0000E+00  0.5440E+03
     10.665  0.0000E+00  0.5440E+03
     10.753  0.0000E+00  0.5440E+03
     10.840  0.0000E+00  0.5440E+03
     10.928  0.0000E+00  0.5440E+03
     11.015  0.0000E+00  0.5440E+03
