 running   64 mpi-ranks, on    1 nodes
 distrk:  each k-point on   64 cores,    1 groups
 distr:  one band on    8 cores,    8 groups
 vasp.6.4.0 14Feb23 (build Apr 20 2023 11:28:40) complex                        
  
 POSCAR found type information on POSCAR BiO 
 POSCAR found :  2 types and      80 ions
 scaLAPACK will be used
 WARNING: PSMAXN for non-local potential too small
 LDA part: xc-table for Pade appr. of Perdew
 POSCAR, INCAR and KPOINTS ok, starting setup
 FFT: planning ... GRIDC
 FFT: planning ... GRID_SOFT
 FFT: planning ... GRID
 WAVECAR not read
 entering main loop
       N       E                     dE             d eps       ncg     rms          rms(c)
DAV:   1     0.335111467394E+04    0.33511E+04   -0.22329E+05  2192   0.163E+03
DAV:   2    -0.123472603710E+03   -0.34746E+04   -0.33271E+04  2752   0.306E+02
DAV:   3    -0.545378039100E+03   -0.42191E+03   -0.41703E+03  2472   0.112E+02
DAV:   4    -0.561130544154E+03   -0.15753E+02   -0.15667E+02  2992   0.202E+01
DAV:   5    -0.561578157793E+03   -0.44761E+00   -0.44723E+00  2600   0.337E+00    0.629E+01
RMM:   6    -0.452845642403E+03    0.10873E+03   -0.57609E+02  2180   0.367E+01    0.221E+01
RMM:   7    -0.459095138188E+03   -0.62495E+01   -0.95063E+01  2652   0.105E+01    0.171E+01
RMM:   8    -0.458598179886E+03    0.49696E+00   -0.18618E+01  2397   0.800E+00    0.606E+00
RMM:   9    -0.458173416667E+03    0.42476E+00   -0.52309E+00  2787   0.294E+00    0.150E+00
RMM:  10    -0.458311194756E+03   -0.13778E+00   -0.17349E+00  2867   0.165E+00    0.163E+00
RMM:  11    -0.458259356316E+03    0.51838E-01   -0.37838E-01  2531   0.972E-01    0.230E-01
RMM:  12    -0.458269130899E+03   -0.97746E-02   -0.88343E-02  2946   0.370E-01    0.378E-01
RMM:  13    -0.458269610982E+03   -0.48008E-03   -0.10274E-02  2944   0.116E-01    0.341E-01
RMM:  14    -0.458269768604E+03   -0.15762E-03   -0.15025E-03  2910   0.428E-02    0.290E-01
RMM:  15    -0.458270068823E+03   -0.30022E-03   -0.10234E-03  2562   0.597E-02    0.145E-01
RMM:  16    -0.458269833256E+03    0.23557E-03   -0.12500E-03  2590   0.520E-02    0.702E-02
RMM:  17    -0.458269865350E+03   -0.32095E-04   -0.36016E-04  3117   0.205E-02    0.678E-02
RMM:  18    -0.458269864731E+03    0.61959E-06   -0.62438E-05  2847   0.996E-03    0.620E-02
RMM:  19    -0.458269860113E+03    0.46179E-05   -0.96943E-06  2422   0.483E-03    0.579E-02
RMM:  20    -0.458269885815E+03   -0.25702E-04   -0.34003E-04  3923   0.240E-02    0.438E-02
RMM:  21    -0.458269850635E+03    0.35180E-04   -0.43192E-05  2843   0.878E-03    0.264E-02
RMM:  22    -0.458269856287E+03   -0.56518E-05   -0.35155E-04  3843   0.232E-02    0.341E-02
RMM:  23    -0.458269836658E+03    0.19629E-04   -0.61454E-05  2899   0.110E-02    0.109E-02
RMM:  24    -0.458269835877E+03    0.78143E-06   -0.53385E-06  2174   0.316E-03
   1 F= -.47779703E+03 E0= -.47779703E+03  d E =-.528898E-11
