  20  20   0   0
  0.1748851E+02  0.7908594E-09  0.7908594E-09  0.7908594E-09  0.5000000E-15
  1.000000000000000E-004
  CAR 
 unknown system                          
     11.22477799    -15.29642143  301      4.16350864      1.00000000
    -15.296  0.0000E+00  0.0000E+00
    -15.208  0.0000E+00  0.0000E+00
    -15.120  0.0000E+00  0.0000E+00
    -15.031  0.0000E+00  0.0000E+00
    -14.943  0.0000E+00  0.0000E+00
    -14.854  0.0000E+00  0.0000E+00
    -14.766  0.0000E+00  0.0000E+00
    -14.678  0.0000E+00  0.0000E+00
    -14.589  0.0000E+00  0.0000E+00
    -14.501  0.0000E+00  0.0000E+00
    -14.412  0.0000E+00  0.0000E+00
    -14.324  0.3925E-11  0.3470E-12
    -14.236  0.3885E-05  0.3434E-06
    -14.147  0.1114E-01  0.9854E-03
    -14.059  0.5944E+00  0.5353E-01
    -13.970  0.2517E+01  0.2761E+00
    -13.882  0.5367E+01  0.7505E+00
    -13.794  0.6342E+01  0.1311E+01
    -13.705  0.5844E+01  0.1828E+01
    -13.617  0.2681E+01  0.2065E+01
    -13.528  0.3891E+01  0.2409E+01
    -13.440  0.7507E+01  0.3072E+01
    -13.352  0.4413E+01  0.3463E+01
    -13.263  0.2978E+01  0.3726E+01
    -13.175  0.5519E+01  0.4214E+01
    -13.086  0.1778E+02  0.5785E+01
    -12.998  0.1363E+02  0.6991E+01
    -12.910  0.7928E+01  0.7691E+01
    -12.821  0.8856E+01  0.8474E+01
    -12.733  0.2091E+02  0.1032E+02
    -12.644  0.2179E+02  0.1225E+02
    -12.556  0.1782E+02  0.1382E+02
    -12.467  0.2082E+02  0.1566E+02
    -12.379  0.2031E+02  0.1746E+02
    -12.291  0.1606E+02  0.1888E+02
    -12.202  0.1507E+02  0.2021E+02
    -12.114  0.2256E+02  0.2221E+02
    -12.025  0.1572E+02  0.2360E+02
    -11.937  0.4418E+01  0.2399E+02
    -11.849  0.1500E+00  0.2400E+02
    -11.760  0.1050E-03  0.2400E+02
    -11.672  0.4161E-09  0.2400E+02
    -11.583  0.0000E+00  0.2400E+02
    -11.495  0.0000E+00  0.2400E+02
    -11.407  0.0000E+00  0.2400E+02
    -11.318  0.0000E+00  0.2400E+02
    -11.230  0.0000E+00  0.2400E+02
    -11.141  0.0000E+00  0.2400E+02
    -11.053  0.0000E+00  0.2400E+02
    -10.965  0.0000E+00  0.2400E+02
    -10.876  0.0000E+00  0.2400E+02
    -10.788  0.0000E+00  0.2400E+02
    -10.699  0.0000E+00  0.2400E+02
    -10.611  0.0000E+00  0.2400E+02
    -10.523  0.0000E+00  0.2400E+02
    -10.434  0.0000E+00  0.2400E+02
    -10.346  0.0000E+00  0.2400E+02
    -10.257  0.0000E+00  0.2400E+02
    -10.169  0.0000E+00  0.2400E+02
    -10.081  0.0000E+00  0.2400E+02
     -9.992  0.0000E+00  0.2400E+02
     -9.904  0.0000E+00  0.2400E+02
     -9.815  0.0000E+00  0.2400E+02
     -9.727  0.0000E+00  0.2400E+02
     -9.639  0.0000E+00  0.2400E+02
     -9.550  0.0000E+00  0.2400E+02
     -9.462  0.0000E+00  0.2400E+02
     -9.373  0.0000E+00  0.2400E+02
     -9.285  0.0000E+00  0.2400E+02
     -9.197  0.0000E+00  0.2400E+02
     -9.108  0.0000E+00  0.2400E+02
     -9.020  0.0000E+00  0.2400E+02
     -8.931  0.0000E+00  0.2400E+02
     -8.843  0.0000E+00  0.2400E+02
     -8.755  0.0000E+00  0.2400E+02
     -8.666  0.0000E+00  0.2400E+02
     -8.578  0.0000E+00  0.2400E+02
     -8.489  0.0000E+00  0.2400E+02
     -8.401  0.0000E+00  0.2400E+02
     -8.313  0.0000E+00  0.2400E+02
     -8.224  0.0000E+00  0.2400E+02
     -8.136  0.0000E+00  0.2400E+02
     -8.047  0.0000E+00  0.2400E+02
     -7.959  0.0000E+00  0.2400E+02
     -7.870  0.0000E+00  0.2400E+02
     -7.782  0.0000E+00  0.2400E+02
     -7.694  0.0000E+00  0.2400E+02
     -7.605  0.0000E+00  0.2400E+02
     -7.517  0.0000E+00  0.2400E+02
     -7.428  0.0000E+00  0.2400E+02
     -7.340  0.0000E+00  0.2400E+02
     -7.252  0.0000E+00  0.2400E+02
     -7.163  0.0000E+00  0.2400E+02
     -7.075  0.0000E+00  0.2400E+02
     -6.986  0.0000E+00  0.2400E+02
     -6.898  0.0000E+00  0.2400E+02
     -6.810  0.0000E+00  0.2400E+02
     -6.721  0.0000E+00  0.2400E+02
     -6.633  0.0000E+00  0.2400E+02
     -6.544  0.0000E+00  0.2400E+02
     -6.456  0.0000E+00  0.2400E+02
     -6.368  0.0000E+00  0.2400E+02
     -6.279  0.8037E-16  0.2400E+02
     -6.191  0.3250E-08  0.2400E+02
     -6.102  0.5588E-03  0.2400E+02
     -6.014  0.3311E+00  0.2403E+02
     -5.926  0.4398E+01  0.2442E+02
     -5.837  0.9520E+01  0.2526E+02
     -5.749  0.6311E+01  0.2582E+02
     -5.660  0.4974E+01  0.2626E+02
     -5.572  0.1242E+02  0.2736E+02
     -5.484  0.1209E+02  0.2842E+02
     -5.395  0.9288E+01  0.2925E+02
     -5.307  0.1180E+02  0.3029E+02
     -5.218  0.7554E+01  0.3096E+02
     -5.130  0.1049E+02  0.3188E+02
     -5.042  0.1433E+02  0.3315E+02
     -4.953  0.2008E+02  0.3492E+02
     -4.865  0.1013E+02  0.3582E+02
     -4.776  0.2002E+01  0.3600E+02
     -4.688  0.1911E+00  0.3601E+02
     -4.600  0.2072E-01  0.3602E+02
     -4.511  0.2359E+00  0.3604E+02
     -4.423  0.1253E+01  0.3615E+02
     -4.334  0.9476E+00  0.3623E+02
     -4.246  0.1130E+00  0.3624E+02
     -4.158  0.1156E+01  0.3634E+02
     -4.069  0.2075E+01  0.3653E+02
     -3.981  0.3400E+01  0.3683E+02
     -3.892  0.1506E+01  0.3696E+02
     -3.804  0.3238E+01  0.3725E+02
     -3.715  0.1311E+01  0.3736E+02
     -3.627  0.3393E+01  0.3766E+02
     -3.539  0.1729E+01  0.3782E+02
     -3.450  0.1625E+01  0.3796E+02
     -3.362  0.4687E+00  0.3800E+02
     -3.273  0.9442E+00  0.3808E+02
     -3.185  0.1923E+01  0.3825E+02
     -3.097  0.4600E+01  0.3866E+02
     -3.008  0.7913E+01  0.3936E+02
     -2.920  0.6824E+01  0.3996E+02
     -2.831  0.4104E+00  0.4000E+02
     -2.743  0.6759E-03  0.4000E+02
     -2.655  0.4336E-08  0.4000E+02
     -2.566  0.0000E+00  0.4000E+02
     -2.478  0.0000E+00  0.4000E+02
     -2.389  0.0000E+00  0.4000E+02
     -2.301  0.0000E+00  0.4000E+02
     -2.213  0.0000E+00  0.4000E+02
     -2.124  0.0000E+00  0.4000E+02
     -2.036  0.0000E+00  0.4000E+02
     -1.947  0.0000E+00  0.4000E+02
     -1.859  0.0000E+00  0.4000E+02
     -1.771  0.0000E+00  0.4000E+02
     -1.682  0.0000E+00  0.4000E+02
     -1.594  0.0000E+00  0.4000E+02
     -1.505  0.0000E+00  0.4000E+02
     -1.417  0.0000E+00  0.4000E+02
     -1.329  0.0000E+00  0.4000E+02
     -1.240  0.0000E+00  0.4000E+02
     -1.152  0.0000E+00  0.4000E+02
     -1.063  0.0000E+00  0.4000E+02
     -0.975  0.0000E+00  0.4000E+02
     -0.887  0.0000E+00  0.4000E+02
     -0.798  0.9042E-16  0.4000E+02
     -0.710  0.6574E-08  0.4000E+02
     -0.621  0.1039E-02  0.4000E+02
     -0.533  0.5427E+00  0.4005E+02
     -0.445  0.7323E+01  0.4070E+02
     -0.356  0.3117E+02  0.4345E+02
     -0.268  0.1849E+02  0.4509E+02
     -0.179  0.3534E+01  0.4540E+02
     -0.091  0.6045E+01  0.4593E+02
     -0.003  0.1249E+02  0.4704E+02
      0.086  0.1520E+02  0.4838E+02
      0.174  0.5128E+01  0.4883E+02
      0.263  0.7516E+01  0.4950E+02
      0.351  0.2609E+02  0.5180E+02
      0.439  0.2169E+02  0.5372E+02
      0.528  0.8465E+01  0.5447E+02
      0.616  0.1503E+02  0.5580E+02
      0.705  0.1188E+02  0.5685E+02
      0.793  0.1562E+02  0.5823E+02
      0.882  0.2092E+02  0.6008E+02
      0.970  0.1235E+02  0.6117E+02
      1.058  0.8443E+01  0.6192E+02
      1.147  0.4304E+01  0.6230E+02
      1.235  0.4605E+01  0.6270E+02
      1.324  0.1052E+02  0.6363E+02
      1.412  0.2012E+02  0.6541E+02
      1.500  0.2057E+02  0.6723E+02
      1.589  0.1108E+02  0.6821E+02
      1.677  0.1038E+02  0.6913E+02
      1.766  0.1242E+02  0.7023E+02
      1.854  0.7657E+01  0.7090E+02
      1.942  0.9587E+01  0.7175E+02
      2.031  0.1492E+02  0.7307E+02
      2.119  0.9200E+01  0.7388E+02
      2.208  0.2040E+02  0.7569E+02
      2.296  0.1848E+02  0.7732E+02
      2.384  0.7151E+01  0.7795E+02
      2.473  0.1280E+02  0.7908E+02
      2.561  0.9369E+01  0.7991E+02
      2.650  0.6610E+01  0.8050E+02
      2.738  0.1849E+02  0.8213E+02
      2.826  0.3447E+02  0.8518E+02
      2.915  0.2418E+02  0.8732E+02
      3.003  0.1030E+02  0.8823E+02
      3.092  0.2040E+02  0.9003E+02
      3.180  0.2208E+02  0.9198E+02
      3.268  0.2089E+02  0.9383E+02
      3.357  0.3006E+02  0.9649E+02
      3.445  0.3734E+02  0.9979E+02
      3.534  0.3097E+02  0.1025E+03
      3.622  0.2821E+02  0.1050E+03
      3.710  0.2766E+02  0.1075E+03
      3.799  0.1428E+02  0.1087E+03
      3.887  0.2305E+02  0.1108E+03
      3.976  0.1337E+02  0.1119E+03
      4.064  0.5932E+00  0.1120E+03
      4.152  0.3480E-03  0.1120E+03
      4.241  0.7046E-09  0.1120E+03
      4.329  0.0000E+00  0.1120E+03
      4.418  0.0000E+00  0.1120E+03
      4.506  0.0000E+00  0.1120E+03
      4.594  0.0000E+00  0.1120E+03
      4.683  0.0000E+00  0.1120E+03
      4.771  0.0000E+00  0.1120E+03
      4.860  0.0000E+00  0.1120E+03
      4.948  0.0000E+00  0.1120E+03
      5.036  0.0000E+00  0.1120E+03
      5.125  0.0000E+00  0.1120E+03
      5.213  0.0000E+00  0.1120E+03
      5.302  0.0000E+00  0.1120E+03
      5.390  0.0000E+00  0.1120E+03
      5.479  0.0000E+00  0.1120E+03
      5.567  0.0000E+00  0.1120E+03
      5.655  0.0000E+00  0.1120E+03
      5.744  0.0000E+00  0.1120E+03
      5.832  0.0000E+00  0.1120E+03
      5.921  0.0000E+00  0.1120E+03
      6.009  0.4376E-12  0.1120E+03
      6.097  0.1363E-05  0.1120E+03
      6.186  0.1091E-01  0.1120E+03
      6.274  0.5807E+00  0.1121E+03
      6.363  0.1883E+01  0.1122E+03
      6.451  0.1655E+01  0.1124E+03
      6.539  0.3359E+01  0.1127E+03
      6.628  0.6651E+01  0.1133E+03
      6.716  0.5340E+01  0.1137E+03
      6.805  0.2291E+01  0.1139E+03
      6.893  0.5621E+01  0.1144E+03
      6.981  0.4337E+01  0.1148E+03
      7.070  0.6110E+01  0.1153E+03
      7.158  0.1356E+02  0.1165E+03
      7.247  0.9392E+01  0.1174E+03
      7.335  0.6730E+01  0.1180E+03
      7.423  0.3466E+01  0.1183E+03
      7.512  0.9163E+01  0.1191E+03
      7.600  0.6737E+01  0.1197E+03
      7.689  0.7868E+01  0.1204E+03
      7.777  0.4610E+01  0.1208E+03
      7.865  0.7916E+01  0.1215E+03
      7.954  0.1483E+02  0.1228E+03
      8.042  0.8991E+01  0.1236E+03
      8.131  0.1150E+02  0.1246E+03
      8.219  0.7470E+01  0.1253E+03
      8.307  0.4262E+01  0.1256E+03
      8.396  0.6169E+01  0.1262E+03
      8.484  0.9874E+01  0.1271E+03
      8.573  0.8783E+01  0.1278E+03
      8.661  0.2511E+01  0.1281E+03
      8.749  0.3619E+01  0.1284E+03
      8.838  0.8075E+01  0.1291E+03
      8.926  0.8958E+01  0.1299E+03
      9.015  0.5456E+01  0.1304E+03
      9.103  0.4117E+01  0.1307E+03
      9.191  0.3935E+01  0.1311E+03
      9.280  0.1051E+02  0.1320E+03
      9.368  0.6929E+01  0.1326E+03
      9.457  0.7096E+01  0.1332E+03
      9.545  0.7864E+01  0.1339E+03
      9.634  0.6997E+01  0.1346E+03
      9.722  0.5541E+01  0.1351E+03
      9.810  0.6548E+01  0.1356E+03
      9.899  0.1649E+01  0.1358E+03
      9.987  0.1199E+01  0.1359E+03
     10.076  0.1232E+01  0.1360E+03
     10.164  0.8086E-01  0.1360E+03
     10.252  0.3101E-04  0.1360E+03
     10.341  0.3140E-10  0.1360E+03
     10.429  0.0000E+00  0.1360E+03
     10.518  0.0000E+00  0.1360E+03
     10.606  0.0000E+00  0.1360E+03
     10.694  0.0000E+00  0.1360E+03
     10.783  0.0000E+00  0.1360E+03
     10.871  0.0000E+00  0.1360E+03
     10.960  0.0000E+00  0.1360E+03
     11.048  0.0000E+00  0.1360E+03
     11.136  0.0000E+00  0.1360E+03
     11.225  0.0000E+00  0.1360E+03
