   22   22    1    2
  0.1420100E+02  0.5010501E-09  0.5010501E-09  0.1436974E-08  0.5000000E-15
  1.000000000000000E-004
  CAR 
 unknown system                          
    170     28    120
 
  0.0000000E+00  0.0000000E+00  0.0000000E+00  0.3333333E-02
      1        -43.105175      -43.067180   1.000000   1.000000
      2        -43.105172      -43.067177   1.000000   1.000000
      3        -43.105168      -43.067174   1.000000   1.000000
      4        -43.105165      -43.067170   1.000000   1.000000
      5        -43.093311      -43.016702   1.000000   1.000000
      6        -43.093247      -43.016657   1.000000   1.000000
      7        -41.567920      -40.829595   1.000000   1.000000
      8        -41.567916      -40.829592   1.000000   1.000000
      9        -41.567916      -40.829590   1.000000   1.000000
     10        -41.567912      -40.829587   1.000000   1.000000
     11        -41.117898      -39.638841   1.000000   1.000000
     12        -41.117857      -39.638820   1.000000   1.000000
     13        -25.047114      -25.047988   1.000000   1.000000
     14        -25.035542      -25.036037   1.000000   1.000000
     15        -24.556652      -24.561209   1.000000   1.000000
     16        -24.556651      -24.561208   1.000000   1.000000
     17        -24.556153      -24.560708   1.000000   1.000000
     18        -24.556152      -24.560707   1.000000   1.000000
     19        -24.414245      -24.412214   1.000000   1.000000
     20        -24.391570      -24.388890   1.000000   1.000000
     21        -23.953359      -23.955192   1.000000   1.000000
     22        -23.953358      -23.955191   1.000000   1.000000
     23        -23.952455      -23.954289   1.000000   1.000000
     24        -23.952454      -23.954288   1.000000   1.000000
     25        -23.599868      -23.582465   1.000000   1.000000
     26        -23.588315      -23.570605   1.000000   1.000000
     27        -23.305132      -23.301304   1.000000   1.000000
     28        -23.305131      -23.301303   1.000000   1.000000
     29        -23.304686      -23.300860   1.000000   1.000000
     30        -23.304685      -23.300859   1.000000   1.000000
     31         -7.862476       -7.668944   1.000000   1.000000
     32         -7.774449       -7.668943   1.000000   1.000000
     33         -7.677713       -7.668037   1.000000   1.000000
     34         -7.677712       -7.668036   1.000000   1.000000
     35         -7.677683       -7.628905   1.000000   1.000000
     36         -7.677682       -7.611153   1.000000   1.000000
     37         -7.400498       -7.292913   1.000000   1.000000
     38         -7.220290       -7.191451   1.000000   1.000000
     39         -7.126894       -7.112766   1.000000   1.000000
     40         -7.126894       -7.112766   1.000000   1.000000
     41         -7.092348       -7.078956   1.000000   1.000000
     42         -7.092348       -7.078956   1.000000   1.000000
     43         -6.543612       -6.405644   1.000000   1.000000
     44         -6.475707       -6.387081   1.000000   1.000000
     45         -6.430300       -6.387081   1.000000   1.000000
     46         -6.430299       -6.369450   1.000000   1.000000
     47         -6.401098       -6.369449   1.000000   1.000000
     48         -6.401098       -6.333087   1.000000   1.000000
     49         -6.251901       -6.171170   1.000000   1.000000
     50         -6.076410       -6.006187   1.000000   1.000000
     51         -6.076409       -6.006187   1.000000   1.000000
     52         -6.056274       -6.005798   1.000000   1.000000
     53         -6.056274       -6.005796   1.000000   1.000000
     54         -5.893139       -5.824447   1.000000   1.000000
     55         -5.567347       -5.539738   1.000000   1.000000
     56         -5.567346       -5.528725   1.000000   1.000000
     57         -5.550615       -5.515045   1.000000   1.000000
     58         -5.534289       -5.515043   1.000000   1.000000
     59         -5.523623       -5.472495   1.000000   1.000000
     60         -5.494256       -5.472495   1.000000   1.000000
     61         -5.494255       -5.288088   1.000000   1.000000
     62         -5.301722       -5.286857   1.000000   1.000000
     63         -5.294214       -5.264743   1.000000   1.000000
     64         -5.294214       -5.264742   1.000000   1.000000
     65         -5.241497       -5.136149   1.000000   1.000000
     66         -5.199919       -5.136149   1.000000   1.000000
     67         -5.199919       -4.943458   1.000000   1.000000
     68         -5.189740       -4.924435   1.000000   1.000000
     69         -4.925282       -4.924433   1.000000   1.000000
     70         -4.925280       -4.792858   1.000000   1.000000
     71         -4.805241       -4.792856   1.000000   1.000000
     72         -4.805239       -4.723922   1.000000   1.000000
     73         -4.650895       -4.676564   1.000000   1.000000
     74         -4.602889       -4.628564   1.000000   1.000000
     75         -4.284011       -4.304420   1.000000   1.000000
     76         -4.246237       -4.267004   1.000000   1.000000
     77         -4.239876       -4.238700   1.000000   1.000000
     78         -4.239873       -4.238696   1.000000   1.000000
     79         -4.232471       -4.230267   1.000000   1.000000
     80         -4.232468       -4.230264   1.000000   1.000000
     81         -4.026247       -4.003742   1.000000   1.000000
     82         -4.026245       -4.003741   1.000000   1.000000
     83         -3.994204       -3.970835   1.000000   1.000000
     84         -3.994203       -3.970833   1.000000   1.000000
     85         -1.721656       -0.821506   1.000000   0.000000
     86         -1.669847       -0.819014   1.000000   0.000000
     87         -1.003611       -0.798329   0.000000   0.000000
     88         -0.987012       -0.798328   0.000000   0.000000
     89         -0.836198       -0.782093   0.000000   0.000000
     90         -0.836197       -0.782092   0.000000   0.000000
     91         -0.817250        1.110890   0.000000   0.000000
     92         -0.817249        1.110891   0.000000   0.000000
     93          0.525278        1.117708   0.000000   0.000000
     94          0.525278        1.117709   0.000000   0.000000
     95          0.525279        1.276366   0.000000   0.000000
     96          0.525279        1.276367   0.000000   0.000000
     97          1.209503        1.277288   0.000000   0.000000
     98          1.209504        1.277289   0.000000   0.000000
     99          1.220482        2.225131   0.000000   0.000000
    100          1.220483        2.234181   0.000000   0.000000
    101          2.084657        2.557813   0.000000   0.000000
    102          2.084658        2.557814   0.000000   0.000000
    103          2.101402        2.569610   0.000000   0.000000
    104          2.101403        2.569611   0.000000   0.000000
    105          5.116852        5.166769   0.000000   0.000000
    106          6.145688        6.180088   0.000000   0.000000
    107          6.204675        6.263172   0.000000   0.000000
    108          8.490767        8.525351   0.000000   0.000000
    109          8.608890        8.671048   0.000000   0.000000
    110         11.030049       11.109672   0.000000   0.000000
    111         11.598961       11.746907   0.000000   0.000000
    112         11.889753       11.977623   0.000000   0.000000
    113         11.981508       12.062349   0.000000   0.000000
    114         12.140215       12.144988   0.000000   0.000000
    115         12.178087       12.280072   0.000000   0.000000
    116         12.466699       12.510230   0.000000   0.000000
    117         12.487884       12.561591   0.000000   0.000000
    118         12.938745       12.892542   0.000000   0.000000
    119         13.000516       13.047314   0.000000   0.000000
    120         13.203460       13.130586   0.000000   0.000000
 
  0.1000000E+00 -0.1387779E-16  0.0000000E+00  0.2000000E-01
      1        -43.105229      -43.067234   1.000000   1.000000
      2        -43.105219      -43.067224   1.000000   1.000000
      3        -43.105190      -43.067195   1.000000   1.000000
      4        -43.105185      -43.067191   1.000000   1.000000
      5        -43.093305      -43.016697   1.000000   1.000000
      6        -43.093244      -43.016654   1.000000   1.000000
      7        -41.567981      -40.829660   1.000000   1.000000
      8        -41.567974      -40.829656   1.000000   1.000000
      9        -41.567937      -40.829615   1.000000   1.000000
     10        -41.567935      -40.829609   1.000000   1.000000
     11        -41.117895      -39.638837   1.000000   1.000000
     12        -41.117848      -39.638814   1.000000   1.000000
     13        -25.037523      -25.038385   1.000000   1.000000
     14        -25.026210      -25.026702   1.000000   1.000000
     15        -24.561691      -24.566185   1.000000   1.000000
     16        -24.561480      -24.565959   1.000000   1.000000
     17        -24.558616      -24.563176   1.000000   1.000000
     18        -24.558091      -24.562648   1.000000   1.000000
     19        -24.406925      -24.404927   1.000000   1.000000
     20        -24.385242      -24.382594   1.000000   1.000000
     21        -23.959801      -23.961614   1.000000   1.000000
     22        -23.958856      -23.960666   1.000000   1.000000
     23        -23.955626      -23.957454   1.000000   1.000000
     24        -23.954727      -23.956556   1.000000   1.000000
     25        -23.592285      -23.575111   1.000000   1.000000
     26        -23.581175      -23.563705   1.000000   1.000000
     27        -23.310557      -23.306560   1.000000   1.000000
     28        -23.310060      -23.306060   1.000000   1.000000
     29        -23.308356      -23.304526   1.000000   1.000000
     30        -23.307870      -23.304044   1.000000   1.000000
     31         -7.847460       -7.684702   1.000000   1.000000
     32         -7.765042       -7.684058   1.000000   1.000000
     33         -7.689463       -7.676132   1.000000   1.000000
     34         -7.687788       -7.674180   1.000000   1.000000
     35         -7.684455       -7.606356   1.000000   1.000000
     36         -7.679066       -7.590662   1.000000   1.000000
     37         -7.388752       -7.289483   1.000000   1.000000
     38         -7.224113       -7.199704   1.000000   1.000000
     39         -7.142297       -7.126670   1.000000   1.000000
     40         -7.125213       -7.108743   1.000000   1.000000
     41         -7.106279       -7.092232   1.000000   1.000000
     42         -7.096379       -7.080466   1.000000   1.000000
     43         -6.552020       -6.436847   1.000000   1.000000
     44         -6.470533       -6.415444   1.000000   1.000000
     45         -6.430735       -6.390713   1.000000   1.000000
     46         -6.429970       -6.378495   1.000000   1.000000
     47         -6.413799       -6.321708   1.000000   1.000000
     48         -6.388783       -6.295204   1.000000   1.000000
     49         -6.244122       -6.162108   1.000000   1.000000
     50         -6.087572       -6.019974   1.000000   1.000000
     51         -6.060967       -6.011673   1.000000   1.000000
     52         -6.055216       -5.991874   1.000000   1.000000
     53         -6.029276       -5.983734   1.000000   1.000000
     54         -5.911365       -5.839801   1.000000   1.000000
     55         -5.613447       -5.553854   1.000000   1.000000
     56         -5.586629       -5.533583   1.000000   1.000000
     57         -5.531683       -5.506628   1.000000   1.000000
     58         -5.505735       -5.494166   1.000000   1.000000
     59         -5.502214       -5.469199   1.000000   1.000000
     60         -5.495482       -5.462588   1.000000   1.000000
     61         -5.470402       -5.338811   1.000000   1.000000
     62         -5.353442       -5.329709   1.000000   1.000000
     63         -5.324971       -5.261835   1.000000   1.000000
     64         -5.288152       -5.198360   1.000000   1.000000
     65         -5.261191       -5.153875   1.000000   1.000000
     66         -5.222693       -5.075023   1.000000   1.000000
     67         -5.124370       -4.956025   1.000000   1.000000
     68         -5.106184       -4.939963   1.000000   1.000000
     69         -4.954228       -4.927991   1.000000   1.000000
     70         -4.933771       -4.813249   1.000000   1.000000
     71         -4.826077       -4.804516   1.000000   1.000000
     72         -4.821901       -4.719665   1.000000   1.000000
     73         -4.601886       -4.621903   1.000000   1.000000
     74         -4.555111       -4.574525   1.000000   1.000000
     75         -4.286654       -4.289723   1.000000   1.000000
     76         -4.271468       -4.281703   1.000000   1.000000
     77         -4.270117       -4.267843   1.000000   1.000000
     78         -4.258249       -4.265411   1.000000   1.000000
     79         -4.218839       -4.222346   1.000000   1.000000
     80         -4.206742       -4.218347   1.000000   1.000000
     81         -4.052713       -4.028933   1.000000   1.000000
     82         -4.028356       -4.008175   1.000000   1.000000
     83         -4.019367       -3.994452   1.000000   1.000000
     84         -3.998618       -3.976573   1.000000   1.000000
     85         -1.714523       -0.818392   1.000000   0.000000
     86         -1.664083       -0.817300   1.000000   0.000000
     87         -0.998898       -0.805035   0.000000   0.000000
     88         -0.980103       -0.795704   0.000000   0.000000
     89         -0.843025       -0.788950   0.000000   0.000000
     90         -0.836975       -0.781217   0.000000   0.000000
     91         -0.824324        1.102350   0.000000   0.000000
     92         -0.817727        1.104422   0.000000   0.000000
     93          0.516545        1.110926   0.000000   0.000000
     94          0.517226        1.113368   0.000000   0.000000
     95          0.519432        1.271280   0.000000   0.000000
     96          0.520505        1.272539   0.000000   0.000000
     97          1.207182        1.277253   0.000000   0.000000
     98          1.208724        1.277791   0.000000   0.000000
     99          1.216950        2.224485   0.000000   0.000000
    100          1.219952        2.234301   0.000000   0.000000
    101          2.081912        2.557252   0.000000   0.000000
    102          2.083997        2.557671   0.000000   0.000000
    103          2.093394        2.565341   0.000000   0.000000
    104          2.101270        2.569830   0.000000   0.000000
    105          5.237686        5.286834   0.000000   0.000000
    106          6.257617        6.290216   0.000000   0.000000
    107          6.307856        6.367653   0.000000   0.000000
    108          8.577056        8.611612   0.000000   0.000000
    109          8.693039        8.755809   0.000000   0.000000
    110         11.115910       11.208880   0.000000   0.000000
    111         11.445812       11.502272   0.000000   0.000000
    112         11.464792       11.606347   0.000000   0.000000
    113         11.749530       11.804939   0.000000   0.000000
    114         11.840375       11.839796   0.000000   0.000000
    115         12.028807       12.057283   0.000000   0.000000
    116         12.199382       12.189444   0.000000   0.000000
    117         12.427099       12.465818   0.000000   0.000000
    118         12.476343       12.564600   0.000000   0.000000
    119         12.692657       12.762256   0.000000   0.000000
    120         12.795625       12.851243   0.000000   0.000000
 
  0.2000000E+00 -0.2775558E-16  0.0000000E+00  0.2000000E-01
      1        -43.105346      -43.067352   1.000000   1.000000
      2        -43.105346      -43.067352   1.000000   1.000000
      3        -43.105230      -43.067235   1.000000   1.000000
      4        -43.105222      -43.067228   1.000000   1.000000
      5        -43.093280      -43.016672   1.000000   1.000000
      6        -43.093232      -43.016642   1.000000   1.000000
      7        -41.568120      -40.829820   1.000000   1.000000
      8        -41.568116      -40.829814   1.000000   1.000000
      9        -41.567982      -40.829665   1.000000   1.000000
     10        -41.567975      -40.829663   1.000000   1.000000
     11        -41.117881      -39.638823   1.000000   1.000000
     12        -41.117818      -39.638774   1.000000   1.000000
     13        -25.011177      -25.012001   1.000000   1.000000
     14        -25.000549      -25.001023   1.000000   1.000000
     15        -24.575127      -24.579520   1.000000   1.000000
     16        -24.575047      -24.579464   1.000000   1.000000
     17        -24.563426      -24.567986   1.000000   1.000000
     18        -24.562864      -24.567420   1.000000   1.000000
     19        -24.388897      -24.386869   1.000000   1.000000
     20        -24.369391      -24.366743   1.000000   1.000000
     21        -23.977146      -23.978906   1.000000   1.000000
     22        -23.976173      -23.977921   1.000000   1.000000
     23        -23.961586      -23.963400   1.000000   1.000000
     24        -23.960720      -23.962533   1.000000   1.000000
     25        -23.570544      -23.554006   1.000000   1.000000
     26        -23.560675      -23.543874   1.000000   1.000000
     27        -23.326918      -23.322482   1.000000   1.000000
     28        -23.326300      -23.321842   1.000000   1.000000
     29        -23.316370      -23.312502   1.000000   1.000000
     30        -23.315840      -23.311975   1.000000   1.000000
     31         -7.808547       -7.730619   1.000000   1.000000
     32         -7.754071       -7.724084   1.000000   1.000000
     33         -7.730893       -7.693776   1.000000   1.000000
     34         -7.724942       -7.687000   1.000000   1.000000
     35         -7.694523       -7.562885   1.000000   1.000000
     36         -7.676429       -7.548794   1.000000   1.000000
     37         -7.358598       -7.289577   1.000000   1.000000
     38         -7.241241       -7.226563   1.000000   1.000000
     39         -7.177162       -7.141066   1.000000   1.000000
     40         -7.130526       -7.104160   1.000000   1.000000
     41         -7.083450       -7.069050   1.000000   1.000000
     42         -7.062785       -7.046214   1.000000   1.000000
     43         -6.565725       -6.485189   1.000000   1.000000
     44         -6.535760       -6.470015   1.000000   1.000000
     45         -6.471944       -6.425924   1.000000   1.000000
     46         -6.446864       -6.396041   1.000000   1.000000
     47         -6.366597       -6.263202   1.000000   1.000000
     48         -6.363672       -6.259820   1.000000   1.000000
     49         -6.242872       -6.129529   1.000000   1.000000
     50         -6.109206       -6.049872   1.000000   1.000000
     51         -6.065396       -6.012441   1.000000   1.000000
     52         -5.987078       -5.941149   1.000000   1.000000
     53         -5.964580       -5.923338   1.000000   1.000000
     54         -5.933740       -5.860043   1.000000   1.000000
     55         -5.704996       -5.648112   1.000000   1.000000
     56         -5.629909       -5.570377   1.000000   1.000000
     57         -5.515652       -5.489139   1.000000   1.000000
     58         -5.514996       -5.488043   1.000000   1.000000
     59         -5.507348       -5.442817   1.000000   1.000000
     60         -5.465244       -5.367983   1.000000   1.000000
     61         -5.375744       -5.364343   1.000000   1.000000
     62         -5.365900       -5.352945   1.000000   1.000000
     63         -5.355148       -5.224751   1.000000   1.000000
     64         -5.274179       -5.214615   1.000000   1.000000
     65         -5.242605       -5.134393   1.000000   1.000000
     66         -5.241924       -5.071799   1.000000   1.000000
     67         -5.057401       -4.965604   1.000000   1.000000
     68         -5.046939       -4.944752   1.000000   1.000000
     69         -4.975029       -4.892999   1.000000   1.000000
     70         -4.956686       -4.849467   1.000000   1.000000
     71         -4.865436       -4.830350   1.000000   1.000000
     72         -4.855519       -4.716842   1.000000   1.000000
     73         -4.492608       -4.503558   1.000000   1.000000
     74         -4.454140       -4.463740   1.000000   1.000000
     75         -4.397616       -4.399953   1.000000   1.000000
     76         -4.364406       -4.358787   1.000000   1.000000
     77         -4.284571       -4.290897   1.000000   1.000000
     78         -4.283672       -4.288434   1.000000   1.000000
     79         -4.147753       -4.156623   1.000000   1.000000
     80         -4.144985       -4.148548   1.000000   1.000000
     81         -4.117631       -4.092099   1.000000   1.000000
     82         -4.079998       -4.053243   1.000000   1.000000
     83         -4.017870       -4.011901   1.000000   1.000000
     84         -4.002897       -3.989141   1.000000   1.000000
     85         -1.697310       -0.825689   1.000000   0.000000
     86         -1.650258       -0.816040   1.000000   0.000000
     87         -0.986440       -0.809338   0.000000   0.000000
     88         -0.963508       -0.808388   0.000000   0.000000
     89         -0.861442       -0.786526   0.000000   0.000000
     90         -0.844150       -0.778603   0.000000   0.000000
     91         -0.838812        1.077096   0.000000   0.000000
     92         -0.819464        1.088750   0.000000   0.000000
     93          0.495065        1.095190   0.000000   0.000000
     94          0.497041        1.100828   0.000000   0.000000
     95          0.501499        1.261792   0.000000   0.000000
     96          0.506482        1.265337   0.000000   0.000000
     97          1.202510        1.273379   0.000000   0.000000
     98          1.205889        1.278510   0.000000   0.000000
     99          1.209882        2.224115   0.000000   0.000000
    100          1.217509        2.234706   0.000000   0.000000
    101          2.074613        2.554520   0.000000   0.000000
    102          2.077496        2.556558   0.000000   0.000000
    103          2.085081        2.559528   0.000000   0.000000
    104          2.100519        2.570573   0.000000   0.000000
    105          5.586466        5.634056   0.000000   0.000000
    106          6.582587        6.607767   0.000000   0.000000
    107          6.602211        6.668869   0.000000   0.000000
    108          8.817519        8.854508   0.000000   0.000000
    109          8.934298        8.997758   0.000000   0.000000
    110         10.544902       10.579054   0.000000   0.000000
    111         10.789671       10.887931   0.000000   0.000000
    112         11.086412       11.120553   0.000000   0.000000
    113         11.437282       11.511535   0.000000   0.000000
    114         11.487234       11.540724   0.000000   0.000000
    115         11.688757       11.727153   0.000000   0.000000
    116         11.838604       11.891419   0.000000   0.000000
    117         12.118816       12.140916   0.000000   0.000000
    118         12.149265       12.237833   0.000000   0.000000
    119         12.267688       12.349517   0.000000   0.000000
    120         12.511626       12.538240   0.000000   0.000000
 
  0.3000000E+00 -0.2775558E-16  0.3851860E-33  0.2000000E-01
      1        -43.105501      -43.067507   1.000000   1.000000
      2        -43.105500      -43.067507   1.000000   1.000000
      3        -43.105272      -43.067278   1.000000   1.000000
      4        -43.105269      -43.067275   1.000000   1.000000
      5        -43.093254      -43.016645   1.000000   1.000000
      6        -43.093208      -43.016619   1.000000   1.000000
      7        -41.568301      -40.830020   1.000000   1.000000
      8        -41.568294      -40.830014   1.000000   1.000000
      9        -41.568029      -40.829724   1.000000   1.000000
     10        -41.568029      -40.829723   1.000000   1.000000
     11        -41.117853      -39.638784   1.000000   1.000000
     12        -41.117791      -39.638728   1.000000   1.000000
     13        -24.975622      -24.976369   1.000000   1.000000
     14        -24.965895      -24.966319   1.000000   1.000000
     15        -24.592986      -24.597432   1.000000   1.000000
     16        -24.592952      -24.597380   1.000000   1.000000
     17        -24.568736      -24.573296   1.000000   1.000000
     18        -24.568146      -24.572700   1.000000   1.000000
     19        -24.367946      -24.365743   1.000000   1.000000
     20        -24.350702      -24.347936   1.000000   1.000000
     21        -23.999817      -24.001522   1.000000   1.000000
     22        -23.998866      -24.000554   1.000000   1.000000
     23        -23.968984      -23.970778   1.000000   1.000000
     24        -23.968165      -23.969951   1.000000   1.000000
     25        -23.537865      -23.522146   1.000000   1.000000
     26        -23.529629      -23.513715   1.000000   1.000000
     27        -23.353431      -23.348469   1.000000   1.000000
     28        -23.352695      -23.347665   1.000000   1.000000
     29        -23.325689      -23.321739   1.000000   1.000000
     30        -23.325158      -23.321210   1.000000   1.000000
     31         -7.814111       -7.801095   1.000000   1.000000
     32         -7.800091       -7.789316   1.000000   1.000000
     33         -7.768900       -7.709430   1.000000   1.000000
     34         -7.730647       -7.699114   1.000000   1.000000
     35         -7.692260       -7.517325   1.000000   1.000000
     36         -7.652907       -7.508593   1.000000   1.000000
     37         -7.324945       -7.297431   1.000000   1.000000
     38         -7.266910       -7.256579   1.000000   1.000000
     39         -7.188547       -7.110503   1.000000   1.000000
     40         -7.124169       -7.079835   1.000000   1.000000
     41         -6.995070       -6.982113   1.000000   1.000000
     42         -6.968481       -6.954638   1.000000   1.000000
     43         -6.625795       -6.567047   1.000000   1.000000
     44         -6.596690       -6.529457   1.000000   1.000000
     45         -6.512950       -6.451713   1.000000   1.000000
     46         -6.484734       -6.435026   1.000000   1.000000
     47         -6.379711       -6.265346   1.000000   1.000000
     48         -6.312448       -6.257644   1.000000   1.000000
     49         -6.246244       -6.091395   1.000000   1.000000
     50         -6.124168       -6.075165   1.000000   1.000000
     51         -6.062595       -5.993050   1.000000   1.000000
     52         -5.974354       -5.890016   1.000000   1.000000
     53         -5.907230       -5.870361   1.000000   1.000000
     54         -5.884306       -5.846678   1.000000   1.000000
     55         -5.777865       -5.722821   1.000000   1.000000
     56         -5.673615       -5.610421   1.000000   1.000000
     57         -5.550763       -5.511587   1.000000   1.000000
     58         -5.535004       -5.499190   1.000000   1.000000
     59         -5.510504       -5.480206   1.000000   1.000000
     60         -5.492499       -5.382244   1.000000   1.000000
     61         -5.402102       -5.302217   1.000000   1.000000
     62         -5.308354       -5.286117   1.000000   1.000000
     63         -5.275879       -5.210237   1.000000   1.000000
     64         -5.261181       -5.184745   1.000000   1.000000
     65         -5.204253       -5.147279   1.000000   1.000000
     66         -5.174782       -5.096953   1.000000   1.000000
     67         -5.153972       -4.998884   1.000000   1.000000
     68         -5.070341       -4.888503   1.000000   1.000000
     69         -4.987125       -4.865594   1.000000   1.000000
     70         -4.893526       -4.857296   1.000000   1.000000
     71         -4.872217       -4.831115   1.000000   1.000000
     72         -4.845829       -4.721008   1.000000   1.000000
     73         -4.535887       -4.538651   1.000000   1.000000
     74         -4.476761       -4.472984   1.000000   1.000000
     75         -4.378939       -4.378657   1.000000   1.000000
     76         -4.347004       -4.345876   1.000000   1.000000
     77         -4.301136       -4.310983   1.000000   1.000000
     78         -4.301051       -4.309552   1.000000   1.000000
     79         -4.199314       -4.172255   1.000000   1.000000
     80         -4.155385       -4.128848   1.000000   1.000000
     81         -4.119157       -4.095594   1.000000   1.000000
     82         -4.098398       -4.083768   1.000000   1.000000
     83         -3.965040       -3.982434   1.000000   1.000000
     84         -3.955212       -3.979204   1.000000   1.000000
     85         -1.678411       -0.850519   1.000000   0.000000
     86         -1.635110       -0.836348   1.000000   0.000000
     87         -0.970495       -0.812847   0.000000   0.000000
     88         -0.945675       -0.802364   0.000000   0.000000
     89         -0.885133       -0.777425   0.000000   0.000000
     90         -0.868351       -0.775342   0.000000   0.000000
     91         -0.843638        1.046191   0.000000   0.000000
     92         -0.822915        1.068484   0.000000   0.000000
     93          0.468371        1.074846   0.000000   0.000000
     94          0.470743        1.086306   0.000000   0.000000
     95          0.477000        1.253170   0.000000   0.000000
     96          0.489238        1.255606   0.000000   0.000000
     97          1.199469        1.265787   0.000000   0.000000
     98          1.199840        1.283541   0.000000   0.000000
     99          1.206476        2.226672   0.000000   0.000000
    100          1.212517        2.235848   0.000000   0.000000
    101          2.064358        2.549155   0.000000   0.000000