Automatically generated mesh
      28
Reciprocal lattice
    0.00000000000000    0.00000000000000    0.00000000000000             1
    0.10000000000000   -0.00000000000000    0.00000000000000             6
    0.20000000000000   -0.00000000000000    0.00000000000000             6
    0.30000000000000   -0.00000000000000    0.00000000000000             6
    0.40000000000000   -0.00000000000000    0.00000000000000             6
    0.50000000000000   -0.00000000000000    0.00000000000000             3
    0.10000000000000    0.10000000000000    0.00000000000000             6
    0.20000000000000    0.10000000000000    0.00000000000000            12
    0.30000000000000    0.10000000000000    0.00000000000000            12
    0.40000000000000    0.10000000000000    0.00000000000000            12
    0.20000000000000    0.20000000000000    0.00000000000000             6
    0.30000000000000    0.20000000000000    0.00000000000000            12
    0.40000000000000    0.20000000000000    0.00000000000000             6
    0.30000000000000    0.30000000000000   -0.00000000000000             6
    0.00000000000000    0.00000000000000    0.33333333333334             2
    0.10000000000000   -0.00000000000000    0.33333333333334            12
    0.20000000000000   -0.00000000000000    0.33333333333334            12
    0.30000000000000   -0.00000000000000    0.33333333333334            12
    0.40000000000000   -0.00000000000000    0.33333333333334            12
    0.50000000000000   -0.00000000000000    0.33333333333334             6
    0.10000000000000    0.10000000000000    0.33333333333334            12
    0.20000000000000    0.10000000000000    0.33333333333334            24
    0.30000000000000    0.10000000000000    0.33333333333334            24
    0.40000000000000    0.10000000000000    0.33333333333334            24
    0.20000000000000    0.20000000000000    0.33333333333334            12
    0.30000000000000    0.20000000000000    0.33333333333334            24
    0.40000000000000    0.20000000000000    0.33333333333334            12
    0.30000000000000    0.30000000000000    0.33333333333334            12
Tetrahedra
       265    0.00055555555556
         8         2         2         7        16
         8         1         2         2        16
         4         1         2        15        16
         4         2         7        16        21
         8         2        16        16        21
         8         2        15        16        16
         8         3         7         8        21
         8         2         3         7        21
         4         2         3        16        21
         4         3         8        21        22
         8         3        17        21        22
         8         3        16        17        21
         8         4         8         9        22
         8         3         4         8        22
         4         3         4        17        22
         4         4         9        22        23
         8         4        18        22        23
         8         4        17        18        22
         8         5         9        10        23
         8         4         5         9        23
         4         4         5        18        23
         4         5        10        23        24
         8         5        19        23        24
         8         5        18        19        23
         8         6        10        10        24
         8         5         6        10        24
         4         5         6        19        24
         4         6        10        24        24
         4         6        20        24        24
         8         6        19        20        24
         8         5         9        10        24
         4         5         6        20        24
         4         5         9        23        24
         8         5        19        20        24
         8         4         8         9        23
         4         4         5        19        23
         4         4         8        22        23
         8         4        18        19        23
         8         3         7         8        22
         4         3         4        18        22
         4         3         7        21        22
         8         3        17        18        22
         4         2         2         7        21
         4         2         3        17        21
         4         2         2        16        21
         8         2        16        17        21
         4         1         2        16        16
         4         1        15        16        16
         8         3         7         8        17
         8         2         3         7        17
         4         2         7        16        17
         4         7         8        17        22
         8         7        17        21        22
         8         7        16        17        21
         8         8         8        11        22
         8         7         8         8        22
         4         7         8        21        22
         4         8        11        22        25
         8         8        22        22        25
         8         8        21        22        22
         8         9        11        12        25
         8         8         9        11        25
         4         8         9        22        25
         4         9        12        25        26
         8         9        23        25        26
         8         9        22        23        25
         8        10        12        13        26
         8         9        10        12        26
         4         9        10        23        26
         4        10        13        26        27
         8        10        24        26        27
         8        10        23        24        26
         8        10        12        13        27
         4        10        10        13        27
         4        10        10        24        27
         4        10        12        26        27
         8        10        24        24        27
         8         9        11        12        26
         4         9        10        24        26
         4         9        11        25        26
         8         9        23        24        26
         4         8         8        11        25
         4         8         9        23        25
         4         8         8        22        25
         8         8        22        23        25
         4         7         8        22        22
         4         3         7        17        22
         4         7        21        22        22
         4         2         7        17        21
         8         4         8         9        18
         8         3         4         8        18
         4         3         8        17        18
         4         8         9        18        23
         8         8        18        22        23
         8         8        17        18        22
         8         9        11        12        23
         8         8         9        11        23
         4         8        11        22        23
         4        11        12        23        26
         8        11        23        25        26
         8        11        22        23        25
         8        12        12        14        26
         8        11        12        12        26
         4        11        12        25        26
         4        12        14        26        28
         8        12        26        26        28
         8        12        25        26        26
         8        13        14        14        28
         8        12        13        14        28
         4        12        13        26        28
         4        13        14        28        28
         4        13        27        28        28
         8        13        26        27        28
         4        12        12        14        28
         4        12        13        27        28
         4        12        12        26        28
         8        12        26        27        28
         4        11        12        26        26
         4         9        11        23        26
         4        11        25        26        26
         4         8        11        23        25
         4         4         8        18        23
         4         3         8        18        22
         8         5         9        10        19
         8         4         5         9        19
         4         4         9        18        19
         4         9        10        19        24
         8         9        19        23        24
         8         9        18        19        23
         8        10        12        13        24
         8         9        10        12        24
         4         9        12        23        24
         4        12        13        24        27
         8        12        24        26        27
         8        12        23        24        26
         4        13        14        14        27
         8        12        13        14        27
         4        12        14        26        27
         4        14        14        27        28
         8        14        27        28        28
         8        14        26        27        28
         4        14        14        14        28
         4        14        14        28        28
         4        13        14        27        28
         4        14        28        28        28
         4        12        14        27        28
         4        10        12        24        27
         4         9        12        24        26
         4         5         9        19        24
         4         4         9        19        23
         4         6        10        10        20
         8         5         6        10        20
         4         5        10        19        20
         4        10        10        20        24
         8        10        20        24        24
         8        10        19        20        24
         8        10        10        13        24
         4        10        13        24        24
         4        12        13        24        26
         8        13        24        26        27
         4        13        24        24        27
         8        12        13        14        26
         4        13        14        26        27
         4        12        14        26        26
         4        14        26        26        28
         4        13        14        26        28
         4        10        13        24        26
         4        10        13        24        27
         4         6        10        20        24
         4         5        10        20        24
         8         5         6        10        19
         4         6        10        19        20
         4         9        10        19        23
         8        10        19        23        24
         8         9        10        12        23
         4        10        12        23        24
         4        11        12        23        25
         8        12        23        25        26
         4        11        12        12        25
         4        12        12        25        26
         4         9        12        23        25
         4        10        12        23        26
         4         5        10        19        23
         4         6        10        19        24
         8         4         5         9        18
         4         5         9        18        19
         4         8         9        18        22
         8         9        18        22        23
         8         8         9        11        22
         4         9        11        22        23
         4         8        11        22        22
         4        11        22        22        25
         4         9        11        22        25
         4         4         9        18        22
         4         5         9        18        23
         8         3         4         8        17
         4         4         8        17        18
         4         7         8        17        21
         8         8        17        21        22
         4         7         8         8        21
         4         8         8        21        22
         4         3         8        17        21
         4         4         8        17        22
         8         2         3         7        16
         4         3         7        16        17
         4         2         7        16        16
         4         7        16        16        21
         4         3         7        16        21
         4         1         2         2        15
         4         2         2        15        16
        12        16        16        16        21
        12        15        16        16        16
         6        15        15        16        16
         6        16        16        21        21
        12        17        21        21        22
        12        16        17        21        21
        12        16        16        17        21
        12        17        21        22        22
        12        17        17        21        22
        12        16        17        17        21
        12        18        22        22        23
        12        17        18        22        22
        12        17        17        18        22
        12        18        22        23        23
        12        18        18        22        23
        12        17        18        18        22
        12        19        23        23        24
        12        18        19        23        23
        12        18        18        19        23
        12        19        23        24        24
        12        19        19        23        24
        12        18        19        19        23
        12        20        24        24        24
        12        19        20        24        24
        12        19        19        20        24
         6        20        20        24        24
        12        19        20        20        24
        12        22        22        22        25
        12        21        22        22        22
         6        21        21        22        22
         6        22        22        25        25
        12        23        25        25        26
        12        22        23        25        25
        12        22        22        23        25
        12        23        25        26        26
        12        23        23        25        26
        12        22        23        23        25
        12        24        26        26        27
        12        23        24        26        26
        12        23        23        24        26
        12        24        26        27        27
        12        24        24        26        27
        12        23        24        24        26
         6        24        24        27        27
        12        24        24        24        27
        12        26        26        26        28
        12        25        26        26        26
         6        25        25        26        26
         6        26        26        28        28
        12        27        28        28        28
        12        26        27        28        28
        12        26        26        27        28
         6        27        27        28        28
        12        26        27        27        28
         6        28        28        28        28
