       N       E                     dE             d eps       ncg     rms          rms(c)
DAV:   1     0.198301769803E+04    0.19830E+04   -0.10262E+05 13864   0.160E+03
DAV:   2     0.736680903666E+02   -0.19093E+04   -0.17934E+04 14296   0.443E+02
DAV:   3    -0.111603902144E+03   -0.18527E+03   -0.17892E+03 14752   0.152E+02
DAV:   4    -0.115777681288E+03   -0.41738E+01   -0.41548E+01 14848   0.264E+01
DAV:   5    -0.115848392607E+03   -0.70711E-01   -0.70665E-01 14880   0.347E+00
RMM:   6    -0.115849789375E+03   -0.13968E-02   -0.13968E-02 14781   0.538E-01
RMM:   7    -0.115850190810E+03   -0.40144E-03   -0.37201E-03 18014   0.234E-01
RMM:   8    -0.115850243252E+03   -0.52442E-04   -0.55568E-04 18675   0.896E-02
RMM:   9    -0.115850245031E+03   -0.17790E-05   -0.20922E-05 16740   0.133E-02
RMM:  10    -0.115850245235E+03   -0.20456E-06   -0.25926E-06 11312   0.570E-03
   1 F= -.11760342E+03 E0= -.11760342E+03  d E =0.000000E+00  mag=     2.0000
