 vasp.6.3.0 20Jan22 (build Jan 28 2022 00:43:23) complex                        
  
 executed on             LinuxIFC date 2025.07.24  00:14:05
 running   64 mpi-ranks, with    1 threads/rank
 distrk:  each k-point on   64 cores,    1 groups
 distr:  one band on NCORE=  16 cores,    4 groups


--------------------------------------------------------------------------------------------------------


 INCAR:
   ALGO = Fast
   ICHARG = 11
   LORBIT = 11
   NEDOS = 4000
   ENCUT = 600
   ISMEAR = -5
   EDIFF = 1.0E-6
   PREC = Accurate
   NELM = 200
   MAGMOM = 4*5.0 18*0.6
   ISPIN = 2
   LDAU = True
   LDAUTYPE = 2
   LDAUL = 2 0
   LDAUU = 3.25 0
   LDAUJ = 0 0
   LDAUPRINT = 1
   LMAXMIX = 4
   LASPH = True
   IVDW = 12
   LWAVE = .FALSE.
   LCHARG = .FALSE.
   LREAL = Auto
   NPAR = 4

 POTCAR:    PAW_PBE V_pv 07Sep2000                
 POTCAR:    PAW_PBE F 08Apr2002                   
 POTCAR:    PAW_PBE V_pv 07Sep2000                
   VRHFIN =V: p6 d4 s1                                                                              
   LEXCH  = PE                                                                                      
   EATOM  =  1321.6206 eV,   97.1364 Ry                                                             
                                                                                                    
   TITEL  = PAW_PBE V_pv 07Sep2000                                                                  
   LULTRA =        F    use ultrasoft PP ?                                                          
   IUNSCR =        1    unscreen: 0-lin 1-nonlin 2-no                                               
   RPACOR =    1.700    partial core radius                                                         
   POMASS =   50.941; ZVAL   =   11.000    mass and valenz                                          
   RCORE  =    2.300    outmost cutoff radius                                                       
   RWIGS  =    2.300; RWIGS  =    1.217    wigner-seitz radius (au A)                               
   ENMAX  =  263.673; ENMIN  =  197.755 eV                                                          
   RCLOC  =    1.779    cutoff for local pot                                                        
   LCOR   =        T    correct aug charges                                                         
   LPAW   =        T    paw PP                                                                      
   EAUG   =  598.473                                                                                
   DEXC   =    0.000                                                                                
   RMAX   =    2.359    core radius for proj-oper                                                   
   RAUG   =    1.300    factor for augmentation sphere                                              
   RDEP   =    2.430    radius for radial grids                                                     
   RDEPT  =    1.700    core radius for aug-charge                                                  
                                                                                                    
   Atomic configuration                                                                             
    8 entries                                                                                       
     n  l   j            E        occ.                                                              
     1  0  0.50     -5360.7193   2.0000                                                             
     2  0  0.50      -598.4546   2.0000                                                             
     2  1  1.50      -499.0155   6.0000                                                             
     3  0  0.50       -66.5711   2.0000                                                             
     3  1  1.50       -40.5282   6.0000                                                             
     3  2  2.50        -2.4291   4.0000                                                             
     4  0  0.50        -3.8743   1.0000                                                             
     4  3  2.50        -1.3606   0.0000                                                             
   Description                                                                                      
     l       E           TYP  RCUT    TYP  RCUT                                                     
     1    -40.5282431     23  2.000                                                                 
     1      5.4423304     23  2.000                                                                 
     2     -2.4290905     23  2.300                                                                 
     2     -1.0472488     23  2.300                                                                 
     0     -3.8742754     23  2.300                                                                 
     0     27.2116520     23  2.300                                                                 
  local pseudopotential read in
  partial core-charges read in
  partial kinetic energy density read in
  atomic valenz-charges read in
  non local Contribution for L=           1  read in
    real space projection operators read in
  non local Contribution for L=           1  read in
    real space projection operators read in
  non local Contribution for L=           2  read in
    real space projection operators read in
  non local Contribution for L=           2  read in
    real space projection operators read in
  non local Contribution for L=           0  read in
    real space projection operators read in
  non local Contribution for L=           0  read in
    real space projection operators read in
    PAW grid and wavefunctions read in
 
   number of l-projection  operators is LMAX  =           6
   number of lm-projection operators is LMMAX =          18
 
 POTCAR:    PAW_PBE F 08Apr2002                   
   VRHFIN =F: s2p5                                                                                  
   LEXCH  = PE                                                                                      
   EATOM  =   659.6475 eV,   48.4827 Ry                                                             
                                                                                                    
   TITEL  = PAW_PBE F 08Apr2002                                                                     
   LULTRA =        F    use ultrasoft PP ?                                                          
   IUNSCR =        1    unscreen: 0-lin 1-nonlin 2-no                                               
   RPACOR =    1.200    partial core radius                                                         
   POMASS =   18.998; ZVAL   =    7.000    mass and valenz                                          
   RCORE  =    1.520    outmost cutoff radius                                                       
   RWIGS  =    1.500; RWIGS  =    0.794    wigner-seitz radius (au A)                               
   ENMAX  =  400.000; ENMIN  =  300.000 eV                                                          
   ICORE  =        2    local potential                                                             
   LCOR   =        T    correct aug charges                                                         
   LPAW   =        T    paw PP                                                                      
   EAUG   =  613.614                                                                                
   RMAX   =    1.555    core radius for proj-oper                                                   
   RAUG   =    1.300    factor for augmentation sphere                                              
   RDEP   =    1.539    radius for radial grids                                                     
   RDEPT  =    1.299    core radius for aug-charge                                                  
                                                                                                    
   Atomic configuration                                                                             
    4 entries                                                                                       
     n  l   j            E        occ.                                                              
     1  0  0.50      -663.3661   2.0000                                                             
     2  0  0.50       -29.8995   2.0000                                                             
     2  1  0.50       -11.1114   5.0000                                                             
     3  2  1.50       -10.8847   0.0000                                                             
   Description                                                                                      
     l       E           TYP  RCUT    TYP  RCUT                                                     
     0    -29.8995018     23  1.200                                                                 
     0     -9.5240782     23  1.200                                                                 
     1    -11.1113914     23  1.520                                                                 
     1      1.3605826     23  1.520                                                                 
     2    -10.8846608      7  1.500                                                                 
  local pseudopotential read in
  partial core-charges read in
  partial kinetic energy density read in
  atomic valenz-charges read in
  non local Contribution for L=           0  read in
    real space projection operators read in
  non local Contribution for L=           0  read in
    real space projection operators read in
  non local Contribution for L=           1  read in
    real space projection operators read in
  non local Contribution for L=           1  read in
    real space projection operators read in
    PAW grid and wavefunctions read in
 
   number of l-projection  operators is LMAX  =           4
   number of lm-projection operators is LMMAX =           8
 
 Optimization of the real space projectors (new method)

 maximal supplied QI-value         = 16.25
 optimisation between [QCUT,QGAM] = [ 12.51, 25.03] = [ 43.85,175.40] Ry 
 Optimized for a Real-space Cutoff    1.35 Angstroem

   l    n(q)    QCUT    max X(q) W(low)/X(q) W(high)/X(q)  e(spline) 
   1     10    12.514     3.206    0.83E-05    0.56E-06    0.38E-07
   1     10    12.514     4.597    0.31E-04    0.53E-04    0.19E-06
   2      9    12.514    89.000    0.16E-03    0.31E-03    0.58E-06
   2      9    12.514    82.410    0.16E-03    0.31E-03    0.58E-06
   0     10    12.514    36.565    0.14E-03    0.67E-04    0.76E-07
   0     10    12.514    13.729    0.10E-03    0.49E-04    0.56E-07
 Optimization of the real space projectors (new method)

 maximal supplied QI-value         = 24.76
 optimisation between [QCUT,QGAM] = [ 12.38, 25.00] = [ 42.90,175.06] Ry 
 Optimized for a Real-space Cutoff    1.16 Angstroem

   l    n(q)    QCUT    max X(q) W(low)/X(q) W(high)/X(q)  e(spline) 
   0      9    12.378    14.049    0.11E-03    0.38E-05    0.23E-06
   0      9    12.378     8.945    0.15E-03    0.56E-05    0.30E-06
   1      8    12.378     7.086    0.18E-03    0.14E-03    0.29E-06
   1      8    12.378     6.747    0.16E-03    0.13E-03    0.26E-06
  PAW_PBE V_pv 07Sep2000                :
 energy of atom  1       EATOM=-1321.6206
 kinetic energy error for atom=    0.0045 (will be added to EATOM!!)
  PAW_PBE F 08Apr2002                   :
 energy of atom  2       EATOM= -659.6475
 kinetic energy error for atom=    0.0256 (will be added to EATOM!!)
 
 
 POSCAR: V4 F18
  positions in direct lattice
  velocities in cartesian coordinates
 exchange correlation table for  LEXCH =        8
   RHO(1)=    0.500       N(1)  =     2000
   RHO(2)=  100.500       N(2)  =     4000
 


--------------------------------------------------------------------------------------------------------


 ion  position               nearest neighbor table
   1  0.000  0.000  0.355-  14 1.76  21 1.76  16 1.76  20 2.10  18 2.10   9 2.10   2 2.91
   2  0.000  0.000  0.152-   6 1.74   7 1.74  12 1.74  20 1.93  18 1.93   9 1.93   1 2.91
   3  0.000  0.000  0.652-  10 1.74   5 1.74   8 1.74  13 1.93  22 1.93  15 1.93   4 2.91
   4  0.000  0.000  0.855-  19 1.76  17 1.76  11 1.76  13 2.10  22 2.10  15 2.10   3 2.91
   5  1.000  0.697  0.593-   3 1.74
   6  0.303  0.000  0.093-   2 1.74
   7  0.000  0.303  0.093-   2 1.74
   8  0.303  0.303  0.593-   3 1.74
   9  0.277  0.277  0.245-   2 1.93   1 2.10
  10  0.697  1.000  0.593-   3 1.74
  11  0.316  0.316  0.909-   4 1.76
  12  0.697  0.697  0.093-   2 1.74
  13  0.277  0.000  0.745-   3 1.93   4 2.10
  14  0.316  0.000  0.409-   1 1.76
  15  0.723  0.723  0.745-   3 1.93   4 2.10
  16  0.684  0.684  0.409-   1 1.76
  17  1.000  0.684  0.909-   4 1.76
  18  1.000  0.723  0.245-   2 1.93   1 2.10
  19  0.684  1.000  0.909-   4 1.76
  20  0.723  1.000  0.245-   2 1.93   1 2.10
  21  0.000  0.316  0.409-   1 1.76
  22  0.000  0.277  0.745-   3 1.93   4 2.10
 
  LATTYP: Found a hexagonal cell.
 ALAT       =     5.0105005511
 C/A-ratio  =     2.8679242405
  
  Lattice vectors:
  
 A1 = (   5.0105005511,  -0.0000000152,   0.0000000000)
 A2 = (  -2.5052498828,   4.3392209897,   0.0000000000)
 A3 = (   0.0000000000,  -0.0000000000,  14.3697359876)


Analysis of symmetry for initial positions (statically):
=====================================================================
 Subroutine PRICEL returns:
 Original cell was already a primitive cell.
 

 Routine SETGRP: Setting up the symmetry group for a 
 hexagonal supercell.


 Subroutine GETGRP returns: Found 12 space group operations
 (whereof  6 operations were pure point group operations)
 out of a pool of 24 trial point group operations.


The static configuration has the point symmetry C_3v.
 The point group associated with its full space group is C_6v.


Analysis of symmetry for dynamics (positions and initial velocities):
=====================================================================
 Subroutine PRICEL returns:
 Original cell was already a primitive cell.
 

 Routine SETGRP: Setting up the symmetry group for a 
 hexagonal supercell.


 Subroutine GETGRP returns: Found 12 space group operations
 (whereof  6 operations were pure point group operations)
 out of a pool of 24 trial point group operations.


The dynamic configuration has the point symmetry C_3v.
 The point group associated with its full space group is C_6v.


Analysis of structural, dynamic, and magnetic symmetry:
=====================================================================
 Subroutine PRICEL returns:
 Original cell was already a primitive cell.
 

 Routine SETGRP: Setting up the symmetry group for a 
 hexagonal supercell.


 Subroutine GETGRP returns: Found 12 space group operations
 (whereof  6 operations were pure point group operations)
 out of a pool of 24 trial point group operations.


The overall configuration has the point symmetry C_3v.
 The point group associated with its full space group is C_6v.


 Subroutine INISYM returns: Found 12 space group operations
 (whereof  6 operations are pure point group operations),
 and found     1 'primitive' translations


----------------------------------------------------------------------------------------

                                     Primitive cell                                     

  volume of cell :     312.4220

  direct lattice vectors                    reciprocal lattice vectors
     5.010500551 -0.000000015  0.000000000     0.199580859  0.115228038  0.000000000
    -2.505249883  4.339220990  0.000000000     0.000000001  0.230456113  0.000000000
     0.000000000 -0.000000000 14.369735988    -0.000000000 -0.000000000  0.069590701

  length of vectors
     5.010500551  5.010500551 14.369735988     0.230456113  0.230456113  0.069590701

  position of ions in fractional coordinates (direct lattice)
     0.000000000  0.000000000  0.355072646
     0.000000000  0.000000000  0.152306737
     0.000000000  0.000000000  0.652306737
     0.000000000  0.000000000  0.855072646
     1.000000000  0.696514534  0.593486293
     0.303485466  0.000000000  0.093486293
     0.000000000  0.303485466  0.093486293
     0.303485466  0.303485466  0.593486293
     0.277090754  0.277090754  0.245303828
     0.696514534  1.000000000  0.593486293
     0.315993667  0.315993667  0.908790419
     0.696514534  0.696514534  0.093486293
     0.277090754  0.000000000  0.745303828
     0.315993667  0.000000000  0.408790419
     0.722909246  0.722909246  0.745303828
     0.684006333  0.684006333  0.408790419
     1.000000000  0.684006333  0.908790419
     1.000000000  0.722909246  0.245303828
     0.684006333  1.000000000  0.908790419
     0.722909246  1.000000000  0.245303828
     0.000000000  0.315993667  0.408790419
     0.000000000  0.277090754  0.745303828

  ion indices of the primitive-cell ions
   primitive index   ion index
                 1           1
                 2           2
                 3           3
                 4           4
                 5           5
                 6           6
                 7           7
                 8           8
                 9           9
                10          10
                11          11
                12          12
                13          13
                14          14
                15          15
                16          16
                17          17
                18          18
                19          19
                20          20
                21          21
                22          22

----------------------------------------------------------------------------------------

 
 
 KPOINTS: pymatgen with grid density = 3000 / numb

Automatic generation of k-mesh.
 Grid dimensions read from file:
 generate k-points for:   10   10    3

 Generating k-lattice:

  Cartesian coordinates                     Fractional coordinates (reciprocal lattice)
     0.019958086  0.011522804  0.000000000     0.100000000  0.000000000  0.000000000
     0.000000000  0.023045611  0.000000000     0.000000000  0.100000000  0.000000000
    -0.000000000 -0.000000000  0.023196900     0.000000000  0.000000000  0.333333333

  Length of vectors
     0.023045611  0.023045611  0.023196900

  Shift w.r.t. Gamma in fractional coordinates (k-lattice)
     0.000000000  0.000000000  0.000000000

 TETIRR: Found    265 inequivalent tetrahedra from     1800
 
 Subroutine IBZKPT returns following result:
 ===========================================
 
 Found     28 irreducible k-points:
 
 Following reciprocal coordinates:
            Coordinates               Weight
  0.000000  0.000000  0.000000      1.000000
  0.100000 -0.000000  0.000000      6.000000
  0.200000 -0.000000  0.000000      6.000000
  0.300000 -0.000000  0.000000      6.000000
  0.400000 -0.000000  0.000000      6.000000
  0.500000 -0.000000  0.000000      3.000000
  0.100000  0.100000  0.000000      6.000000
  0.200000  0.100000  0.000000     12.000000
  0.300000  0.100000  0.000000     12.000000
  0.400000  0.100000  0.000000     12.000000
  0.200000  0.200000  0.000000      6.000000
  0.300000  0.200000  0.000000     12.000000
  0.400000  0.200000  0.000000      6.000000
  0.300000  0.300000 -0.000000      6.000000
  0.000000  0.000000  0.333333      2.000000
  0.100000 -0.000000  0.333333     12.000000
  0.200000 -0.000000  0.333333     12.000000
  0.300000 -0.000000  0.333333     12.000000
  0.400000 -0.000000  0.333333     12.000000
  0.500000 -0.000000  0.333333      6.000000
  0.100000  0.100000  0.333333     12.000000
  0.200000  0.100000  0.333333     24.000000
  0.300000  0.100000  0.333333     24.000000
  0.400000  0.100000  0.333333     24.000000
  0.200000  0.200000  0.333333     12.000000
  0.300000  0.200000  0.333333     24.000000
  0.400000  0.200000  0.333333     12.000000
  0.300000  0.300000  0.333333     12.000000
 
 Following cartesian coordinates:
            Coordinates               Weight
  0.000000  0.000000  0.000000      1.000000
  0.019958  0.011523  0.000000      6.000000
  0.039916  0.023046  0.000000      6.000000
  0.059874  0.034568  0.000000      6.000000
  0.079832  0.046091  0.000000      6.000000
  0.099790  0.057614  0.000000      3.000000
  0.019958  0.034568  0.000000      6.000000
  0.039916  0.046091  0.000000     12.000000
  0.059874  0.057614  0.000000     12.000000
  0.079832  0.069137  0.000000     12.000000
  0.039916  0.069137  0.000000      6.000000
  0.059874  0.080660  0.000000     12.000000
  0.079832  0.092182  0.000000      6.000000
  0.059874  0.103705  0.000000      6.000000
 -0.000000 -0.000000  0.023197      2.000000
  0.019958  0.011523  0.023197     12.000000
  0.039916  0.023046  0.023197     12.000000
  0.059874  0.034568  0.023197     12.000000
  0.079832  0.046091  0.023197     12.000000
  0.099790  0.057614  0.023197      6.000000
  0.019958  0.034568  0.023197     12.000000
  0.039916  0.046091  0.023197     24.000000
  0.059874  0.057614  0.023197     24.000000
  0.079832  0.069137  0.023197     24.000000
  0.039916  0.069137  0.023197     12.000000
  0.059874  0.080660  0.023197     24.000000
  0.079832  0.092182  0.023197     12.000000
  0.059874  0.103705  0.023197     12.000000
 


--------------------------------------------------------------------------------------------------------




 Dimension of arrays:
   k-points           NKPTS =     28   k-points in BZ     NKDIM =     28   number of bands    NBANDS=    120
   number of dos      NEDOS =   4000   number of ions     NIONS =     22
   non local maximal  LDIM  =      6   non local SUM 2l+1 LMDIM =     18
   total plane-waves  NPLWV = 192000
   max r-space proj   IRMAX =   6326   max aug-charges    IRDMAX=  17488
   dimension x,y,z NGX =    40 NGY =   40 NGZ =  120
   dimension x,y,z NGXF=    80 NGYF=   80 NGZF=  240
   support grid    NGXF=    80 NGYF=   80 NGZF=  240
   ions per type =               4  18
   NGX,Y,Z   is equivalent  to a cutoff of  13.27, 13.27, 13.88 a.u.
   NGXF,Y,Z  is equivalent  to a cutoff of  26.54, 26.54, 27.77 a.u.

 SYSTEM =  unknown system                          
 POSCAR =  V4 F18                                  

 Startparameter for this run:
   NWRITE =      2    write-flag & timer
   PREC   = accura    normal or accurate (medium, high low for compatibility)
   ISTART =      0    job   : 0-new  1-cont  2-samecut
   ICHARG =     11    charge: 1-file 2-atom 10-const
   ISPIN  =      2    spin polarized calculation?
   LNONCOLLINEAR =      F non collinear calculations
   LSORBIT =      F    spin-orbit coupling
   INIWAV =      1    electr: 0-lowe 1-rand  2-diag
   LASPH  =      T    aspherical Exc in radial PAW
 Electronic Relaxation 1
   ENCUT  =  600.0 eV  44.10 Ry    6.64 a.u.  10.01 10.01 28.70*2*pi/ulx,y,z
   ENINI  =  600.0     initial cutoff
   ENAUG  =  613.6 eV  augmentation charge cutoff
   NELM   =    200;   NELMIN=  2; NELMDL= -5     # of ELM steps 
   EDIFF  = 0.1E-05   stopping-criterion for ELM
   LREAL  =      T    real-space projection
   NLSPLINE    = F    spline interpolate recip. space projectors
   LCOMPAT=      F    compatible to vasp.4.4
   GGA_COMPAT  = T    GGA compatible to vasp.4.4-vasp.4.6
   LMAXPAW     = -100 max onsite density
   LMAXMIX     =    4 max onsite mixed and CHGCAR
   VOSKOWN=      0    Vosko Wilk Nusair interpolation
   ROPT   =   -0.00025  -0.00025
 Ionic relaxation
   EDIFFG = 0.1E-04   stopping-criterion for IOM
   NSW    =      0    number of steps for IOM
   NBLOCK =      1;   KBLOCK =      1    inner block; outer block 
   IBRION =     -1    ionic relax: 0-MD 1-quasi-New 2-CG
   NFREE  =      0    steps in history (QN), initial steepest desc. (CG)
   ISIF   =      2    stress and relaxation
   IWAVPR =     10    prediction:  0-non 1-charg 2-wave 3-comb
   ISYM   =      2    0-nonsym 1-usesym 2-fastsym
   LCORR  =      T    Harris-Foulkes like correction to forces

   POTIM  = 0.5000    time-step for ionic-motion
   TEIN   =    0.0    initial temperature
   TEBEG  =    0.0;   TEEND  =   0.0 temperature during run
   SMASS  =  -3.00    Nose mass-parameter (am)
   estimated Nose-frequenzy (Omega)   =  0.10E-29 period in steps = 0.13E+47 mass=  -0.574E-27a.u.
   SCALEE = 1.0000    scale energy and forces
   NPACO  =    256;   APACO  = 10.0  distance and # of slots for P.C.
   PSTRESS=    0.0 pullay stress

  Mass of Ions in am
   POMASS =  50.94 19.00
  Ionic Valenz
   ZVAL   =  11.00  7.00
  Atomic Wigner-Seitz radii
   RWIGS  =  -1.00 -1.00
  virtual crystal weights 
   VCA    =   1.00  1.00
   NELECT =     170.0000    total number of electrons
   NUPDOWN=      -1.0000    fix difference up-down

 DOS related values:
   EMIN   =  10.00;   EMAX   =-10.00  energy-range for DOS
   EFERMI =   0.00
   ISMEAR =    -5;   SIGMA  =   0.20  broadening in eV -4-tet -1-fermi 0-gaus

 Electronic relaxation 2 (details)
   IALGO  =     68    algorithm
   LDIAG  =      T    sub-space diagonalisation (order eigenvalues)
   LSUBROT=      F    optimize rotation matrix (better conditioning)
   TURBO    =      0    0=normal 1=particle mesh
   IRESTART =      0    0=no restart 2=restart with 2 vectors
   NREBOOT  =      0    no. of reboots
   NMIN     =      0    reboot dimension
   EREF     =   0.00    reference energy to select bands
   IMIX   =      4    mixing-type and parameters
     AMIX     =   0.40;   BMIX     =  1.00
     AMIX_MAG =   1.60;   BMIX_MAG =  1.00
     AMIN     =   0.10
     WC   =   100.;   INIMIX=   1;  MIXPRE=   1;  MAXMIX= -45

 Intra band minimization:
   WEIMIN = 0.0000     energy-eigenvalue tresh-hold
   EBREAK =  0.21E-08  absolut break condition
   DEPER  =   0.30     relativ break condition  

   TIME   =   0.40     timestep for ELM

  volume/ion in A,a.u.               =      14.20        95.83
  Fermi-wavevector in a.u.,A,eV,Ry     =   1.336525  2.525667 24.304092  1.786300
  Thomas-Fermi vector in A             =   2.465145
 
 Write flags
   LWAVE        =      F    write WAVECAR
   LDOWNSAMPLE  =      F    k-point downsampling of WAVECAR
   LCHARG       =      F    write CHGCAR
   LVTOT        =      F    write LOCPOT, total local potential
   LVHAR        =      F    write LOCPOT, Hartree potential only
   LELF         =      F    write electronic localiz. function (ELF)
   LORBIT       =     11    0 simple, 1 ext, 2 COOP (PROOUT), +10 PAW based schemes


 Dipole corrections
   LMONO  =      F    monopole corrections only (constant potential shift)
   LDIPOL =      F    correct potential (dipole corrections)
   IDIPOL =      0    1-x, 2-y, 3-z, 4-all directions 
   EPSILON=  1.0000000 bulk dielectric constant

 LDA+U is selected, type is set to LDAUTYPE =  2
   angular momentum for each species LDAUL =     2    0
   U (eV)           for each species LDAUU =   3.2  0.0
   J (eV)           for each species LDAUJ =   0.0  0.0
 Exchange correlation treatment:
   GGA     =    --    GGA type
   LEXCH   =     8    internal setting for exchange type
   LIBXC   =     F    Libxc                    
   VOSKOWN =     0    Vosko Wilk Nusair interpolation
   LHFCALC =     F    Hartree Fock is set to
   LHFONE  =     F    Hartree Fock one center treatment
   AEXX    =    0.0000 exact exchange contribution

 Linear response parameters
   LEPSILON=     F    determine dielectric tensor
   LRPA    =     F    only Hartree local field effects (RPA)
   LNABLA  =     F    use nabla operator in PAW spheres
   LVEL    =     F    velocity operator in full k-point grid
   CSHIFT  =0.1000    complex shift for real part using Kramers Kronig
   OMEGAMAX=  -1.0    maximum frequency
   DEG_THRESHOLD= 0.2000000E-02 threshold for treating states as degnerate
   RTIME   =   -0.100 relaxation time in fs
  (WPLASMAI=    0.000 imaginary part of plasma frequency in eV, 0.658/RTIME)
   DFIELD  = 0.0000000 0.0000000 0.0000000 field for delta impulse in time
 
  Optional k-point grid parameters
   LKPOINTS_OPT  =     F    use optional k-point grid
   KPOINTS_OPT_MODE=     1    mode for optional k-point grid
 
 Orbital magnetization related:
   ORBITALMAG=     F  switch on orbital magnetization
   LCHIMAG   =     F  perturbation theory with respect to B field
   DQ        =  0.001000  dq finite difference perturbation B field
   LLRAUG    =     F  two centre corrections for induced B field



--------------------------------------------------------------------------------------------------------


 Static calculation
 charge density and potential remain constant during run
 spin polarized calculation
 RMM-DIIS sequential band-by-band and
  variant of blocked Davidson during initial phase
 perform sub-space diagonalisation
    before iterative eigenvector-optimisation
 no mixing
 using additional bands           35
 real space projection scheme for non local part
 use partial core corrections
 calculate Harris-corrections to forces 
   (improved forces if not selfconsistent)
 use gradient corrections 
 WARNING: stress and forces are not correct
  (second derivative of E(xc) not defined)
 use of overlap-Matrix (Vanderbilt PP)
 Fermi weights with tetrahedron method with Bloechl corrections


--------------------------------------------------------------------------------------------------------


  energy-cutoff  :      600.00
  volume of cell :      312.42
      direct lattice vectors                 reciprocal lattice vectors
     5.010500551 -0.000000015  0.000000000     0.199580859  0.115228038  0.000000000
    -2.505249883  4.339220990  0.000000000     0.000000001  0.230456113  0.000000000
     0.000000000 -0.000000000 14.369735988    -0.000000000 -0.000000000  0.069590701

  length of vectors
     5.010500551  5.010500551 14.369735988     0.230456113  0.230456113  0.069590701


 
 k-points in units of 2pi/SCALE and weight: pymatgen with grid density = 3000 / numb
   0.00000000  0.00000000  0.00000000       0.003
   0.01995809  0.01152280  0.00000000       0.020
   0.03991617  0.02304561  0.00000000       0.020
   0.05987426  0.03456841  0.00000000       0.020
   0.07983234  0.04609122  0.00000000       0.020
   0.09979043  0.05761402  0.00000000       0.010
   0.01995809  0.03456842  0.00000000       0.020
   0.03991617  0.04609122  0.00000000       0.040
   0.05987426  0.05761402  0.00000000       0.040
   0.07983234  0.06913683  0.00000000       0.040
   0.03991617  0.06913683  0.00000000       0.020
   0.05987426  0.08065963  0.00000000       0.040
   0.07983234  0.09218244  0.00000000       0.020
   0.05987426  0.10370525  0.00000000       0.020
  -0.00000000 -0.00000000  0.02319690       0.007
   0.01995809  0.01152280  0.02319690       0.040
   0.03991617  0.02304561  0.02319690       0.040
   0.05987426  0.03456841  0.02319690       0.040
   0.07983234  0.04609122  0.02319690       0.040
   0.09979043  0.05761402  0.02319690       0.020
   0.01995809  0.03456842  0.02319690       0.040
   0.03991617  0.04609122  0.02319690       0.080
   0.05987426  0.05761402  0.02319690       0.080
   0.07983234  0.06913683  0.02319690       0.080
   0.03991617  0.06913683  0.02319690       0.040
   0.05987426  0.08065963  0.02319690       0.080
   0.07983234  0.09218244  0.02319690       0.040
   0.05987426  0.10370525  0.02319690       0.040
 
 k-points in reciprocal lattice and weights: pymatgen with grid density = 3000 / numb
   0.00000000  0.00000000  0.00000000       0.003
   0.10000000 -0.00000000  0.00000000       0.020
   0.20000000 -0.00000000  0.00000000       0.020
   0.30000000 -0.00000000  0.00000000       0.020
   0.40000000 -0.00000000  0.00000000       0.020
   0.50000000 -0.00000000  0.00000000       0.010
   0.10000000  0.10000000  0.00000000       0.020
   0.20000000  0.10000000  0.00000000       0.040
   0.30000000  0.10000000  0.00000000       0.040
   0.40000000  0.10000000  0.00000000       0.040
   0.20000000  0.20000000  0.00000000       0.020
   0.30000000  0.20000000  0.00000000       0.040
   0.40000000  0.20000000  0.00000000       0.020
   0.30000000  0.30000000 -0.00000000       0.020
   0.00000000  0.00000000  0.33333333       0.007
   0.10000000 -0.00000000  0.33333333       0.040
   0.20000000 -0.00000000  0.33333333       0.040
   0.30000000 -0.00000000  0.33333333       0.040
   0.40000000 -0.00000000  0.33333333       0.040
   0.50000000 -0.00000000  0.33333333       0.020
   0.10000000  0.10000000  0.33333333       0.040
   0.20000000  0.10000000  0.33333333       0.080
   0.30000000  0.10000000  0.33333333       0.080
   0.40000000  0.10000000  0.33333333       0.080
   0.20000000  0.20000000  0.33333333       0.040
   0.30000000  0.20000000  0.33333333       0.080
   0.40000000  0.20000000  0.33333333       0.040
   0.30000000  0.30000000  0.33333333       0.040
 
 position of ions in fractional coordinates (direct lattice) 
   0.00000000  0.00000000  0.35507265
   0.00000000  0.00000000  0.15230674
   0.00000000  0.00000000  0.65230674
   0.00000000  0.00000000  0.85507265
   1.00000000  0.69651453  0.59348629
   0.30348547  0.00000000  0.09348629
   0.00000000  0.30348547  0.09348629
   0.30348547  0.30348547  0.59348629
   0.27709075  0.27709075  0.24530383
   0.69651453  1.00000000  0.59348629
   0.31599367  0.31599367  0.90879042
   0.69651453  0.69651453  0.09348629
   0.27709075  0.00000000  0.74530383
   0.31599367  0.00000000  0.40879042
   0.72290925  0.72290925  0.74530383
   0.68400633  0.68400633  0.40879042
   1.00000000  0.68400633  0.90879042
   1.00000000  0.72290925  0.24530383
   0.68400633  1.00000000  0.90879042
   0.72290925  1.00000000  0.24530383
   0.00000000  0.31599367  0.40879042
   0.00000000  0.27709075  0.74530383
 
 position of ions in cartesian coordinates  (Angst):
   0.00000000 -0.00000000  5.10230017
   0.00000000 -0.00000000  2.18860760
   0.00000000 -0.00000000  9.37347559
   0.00000000 -0.00000000 12.28716817
   3.26555760  3.02233047  8.52824134
   1.52061410 -0.00000000  1.34337334
  -0.76030693  1.31689051  1.34337334
   0.76030717  1.31689050  8.52824134
   0.69418180  1.20235801  3.52495124
   0.98463657  4.33922098  8.52824134
   0.79164335  1.37116635 13.05907839
   1.74494350  3.02233047  1.34337334
   1.38836337 -0.00000000 10.70981923
   1.58328644 -0.00000000  5.87421039
   1.81106887  3.13686296 10.70981923
   1.71360732  2.96805463  5.87421039
   3.29689377  2.96805462 13.05907839
   3.19943225  3.13686296  3.52495124
   0.92196422  4.33922098 13.05907839
   1.11688729  4.33922098  3.52495124
  -0.79164310  1.37116635  5.87421039
  -0.69418158  1.20235802 10.70981923
 


--------------------------------------------------------------------------------------------------------


 k-point   1 :   0.0000 0.0000 0.0000  plane waves:   10335
 k-point   2 :   0.1000-0.0000 0.0000  plane waves:   10387
 k-point   3 :   0.2000-0.0000 0.0000  plane waves:   10401
 k-point   4 :   0.3000-0.0000 0.0000  plane waves:   10419
 k-point   5 :   0.4000-0.0000 0.0000  plane waves:   10440
 k-point   6 :   0.5000-0.0000 0.0000  plane waves:   10384
 k-point   7 :   0.1000 0.1000 0.0000  plane waves:   10422
 k-point   8 :   0.2000 0.1000 0.0000  plane waves:   10424
 k-point   9 :   0.3000 0.1000 0.0000  plane waves:   10420
 k-point  10 :   0.4000 0.1000 0.0000  plane waves:   10427
 k-point  11 :   0.2000 0.2000 0.0000  plane waves:   10434
 k-point  12 :   0.3000 0.2000 0.0000  plane waves:   10446
 k-point  13 :   0.4000 0.2000 0.0000  plane waves:   10430
 k-point  14 :   0.3000 0.3000-0.0000  plane waves:   10472
 k-point  15 :   0.0000 0.0000 0.3333  plane waves:   10396
 k-point  16 :   0.1000-0.0000 0.3333  plane waves:   10392
 k-point  17 :   0.2000-0.0000 0.3333  plane waves:   10385
 k-point  18 :   0.3000-0.0000 0.3333  plane waves:   10391
 k-point  19 :   0.4000-0.0000 0.3333  plane waves:   10414
 k-point  20 :   0.5000-0.0000 0.3333  plane waves:   10418
 k-point  21 :   0.1000 0.1000 0.3333  plane waves:   10398
 k-point  22 :   0.2000 0.1000 0.3333  plane waves:   10421
 k-point  23 :   0.3000 0.1000 0.3333  plane waves:   10428
 k-point  24 :   0.4000 0.1000 0.3333  plane waves:   10447
 k-point  25 :   0.2000 0.2000 0.3333  plane waves:   10439
 k-point  26 :   0.3000 0.2000 0.3333  plane waves:   10452
 k-point  27 :   0.4000 0.2000 0.3333  plane waves:   10447
 k-point  28 :   0.3000 0.3000 0.3333  plane waves:   10432

 maximum and minimum number of plane-waves per node :       663      633

 maximum number of plane-waves:     10472
 maximum index in each direction: 
   IXMAX=   10   IYMAX=   10   IZMAX=   28
   IXMIN=  -10   IYMIN=  -10   IZMIN=  -29


 real space projection operators:
  total allocation   :       7833.38 KBytes
  max/ min on nodes  :        725.88        225.06


 parallel 3D FFT for wavefunctions:
    minimum data exchange during FFTs selected (reduces bandwidth)
 parallel 3D FFT for charge:
    minimum data exchange during FFTs selected (reduces bandwidth)


 total amount of memory used by VASP MPI-rank0    57581. kBytes
=======================================================================

   base      :      30000. kBytes
   nonlr-proj:       3165. kBytes
   fftplans  :       1613. kBytes
   grid      :       4248. kBytes
   one-center:         62. kBytes
   wavefun   :      18493. kBytes
 
     INWAV:  cpu time      0.0002: real time      0.0009
 initial charge density was supplied:
 number of electron     170.0000068 magnetization       2.0000459
 keeping initial charge density in first step


--------------------------------------------------------------------------------------------------------


 Maximum index for non-local projection operator          587
 Maximum index for augmentation-charges          828 (set IRDMAX)


--------------------------------------------------------------------------------------------------------


 First call to EWALD:  gamma=   0.261
 Maximum number of real-space cells 4x 4x 2
 Maximum number of reciprocal cells 2x 2x 5

    FEWALD:  cpu time      0.0154: real time      0.0160


--------------------------------------- Iteration      1(   1)  ---------------------------------------


    POTLOK:  cpu time      0.4835: real time      0.6125
    SETDIJ:  cpu time      3.8523: real time      3.9814
atom =   1  type =  1  l = 2
 
 onsite density matrix
 
spin component  1
 
  0.2458 -0.0723 -0.0000 -0.0000 -0.0000
 -0.0723  0.2133  0.0000  0.0000 -0.0000
 -0.0000  0.0000  0.9511  0.0000  0.0000
 -0.0000  0.0000  0.0000  0.2133  0.0723
 -0.0000 -0.0000  0.0000  0.0723  0.2458
 
spin component  2
 
  0.2106 -0.0702 -0.0000 -0.0000 -0.0000
 -0.0702  0.1955  0.0000  0.0000 -0.0000
 -0.0000  0.0000  0.1056  0.0000  0.0000
 -0.0000  0.0000  0.0000  0.1955  0.0702
 -0.0000 -0.0000  0.0000  0.0702  0.2106
 
 occupancies and eigenvectors
 
  o =  0.1056  v =  0.0000  0.0000  0.0000  0.0000  0.0000 -0.0000 -0.0000 -1.0000 -0.0000  0.0000      0.0000  0.0000  0.0000  0.0000  0.0000  0.0000  0.0000  0.0000  0.0000  0.0000
  o =  0.1324  v =  0.0000  0.0000  0.0000  0.0000  0.0000  0.3341  0.3720  0.0000 -0.6443  0.5787      0.0000  0.0000  0.0000  0.0000  0.0000  0.0000  0.0000  0.0000  0.0000  0.0000
  o =  0.1324  v =  0.0000  0.0000  0.0000  0.0000  0.0000  0.5787  0.6443 -0.0000  0.3720 -0.3341      0.0000  0.0000  0.0000  0.0000  0.0000  0.0000  0.0000  0.0000  0.0000  0.0000
  o =  0.1554  v =  0.3124  0.3904 -0.0000 -0.6762  0.5411  0.0000  0.0000  0.0000  0.0000  0.0000      0.0000  0.0000  0.0000  0.0000  0.0000  0.0000  0.0000  0.0000  0.0000  0.0000
  o =  0.1554  v =  0.5411  0.6762  0.0000  0.3904 -0.3124  0.0000  0.0000  0.0000  0.0000  0.0000      0.0000  0.0000  0.0000  0.0000  0.0000  0.0000  0.0000  0.0000  0.0000  0.0000
  o =  0.2737  v =  0.0000  0.0000  0.0000  0.0000  0.0000  0.3720 -0.3341 -0.0000  0.5787  0.6443      0.0000  0.0000  0.0000  0.0000  0.0000  0.0000  0.0000  0.0000  0.0000  0.0000
  o =  0.2737  v =  0.0000  0.0000  0.0000  0.0000  0.0000 -0.6443  0.5787  0.0000  0.3341  0.3720      0.0000  0.0000  0.0000  0.0000  0.0000  0.0000  0.0000  0.0000  0.0000  0.0000
  o =  0.3036  v =  0.3904 -0.3124  0.0000  0.5411  0.6762  0.0000  0.0000  0.0000  0.0000  0.0000      0.0000  0.0000  0.0000  0.0000  0.0000  0.0000  0.0000  0.0000  0.0000  0.0000
  o =  0.3036  v = -0.6762  0.5411 -0.0000  0.3124  0.3904  0.0000  0.0000  0.0000  0.0000  0.0000      0.0000  0.0000  0.0000  0.0000  0.0000  0.0000  0.0000  0.0000  0.0000  0.0000
  o =  0.9511  v =  0.0000 -0.0000 -1.0000 -0.0000 -0.0000  0.0000  0.0000  0.0000  0.0000  0.0000      0.0000  0.0000  0.0000  0.0000  0.0000  0.0000  0.0000  0.0000  0.0000  0.0000
 
atom =   2  type =  1  l = 2
 
 onsite density matrix
 
spin component  1
 
  0.2621  0.0859 -0.0000  0.0000 -0.0000
  0.0859  0.3080 -0.0000  0.0000  0.0000
 -0.0000 -0.0000  0.2333 -0.0000  0.0000
  0.0000  0.0000 -0.0000  0.3080 -0.0859
 -0.0000  0.0000  0.0000 -0.0859  0.2621
 
spin component  2
 
  0.2597  0.0861 -0.0000  0.0000 -0.0000
  0.0861  0.3063 -0.0000  0.0000  0.0000
 -0.0000 -0.0000  0.1963 -0.0000  0.0000
  0.0000  0.0000 -0.0000  0.3063 -0.0861
 -0.0000  0.0000  0.0000 -0.0861  0.2597
 
 occupancies and eigenvectors
 
  o =  0.1938  v =  0.0000  0.0000  0.0000  0.0000  0.0000 -0.3971  0.3038 -0.0000 -0.5263 -0.6878      0.0000  0.0000  0.0000  0.0000  0.0000  0.0000  0.0000  0.0000  0.0000  0.0000
  o =  0.1938  v =  0.0000  0.0000  0.0000  0.0000  0.0000 -0.6878  0.5263 -0.0000  0.3038  0.3971      0.0000  0.0000  0.0000  0.0000  0.0000  0.0000  0.0000  0.0000  0.0000  0.0000
  o =  0.1962  v =  0.3965 -0.3046  0.0000  0.5275  0.6868  0.0000  0.0000  0.0000  0.0000  0.0000      0.0000  0.0000  0.0000  0.0000  0.0000  0.0000  0.0000  0.0000  0.0000  0.0000
  o =  0.1962  v =  0.6868 -0.5275  0.0000 -0.3046 -0.3965  0.0000  0.0000  0.0000  0.0000  0.0000      0.0000  0.0000  0.0000  0.0000  0.0000  0.0000  0.0000  0.0000  0.0000  0.0000
  o =  0.1963  v =  0.0000  0.0000  0.0000  0.0000  0.0000  0.0000 -0.0000 -1.0000 -0.0000 -0.0000      0.0000  0.0000  0.0000  0.0000  0.0000  0.0000  0.0000  0.0000  0.0000  0.0000
  o =  0.2333  v =  0.0000 -0.0000 -1.0000 -0.0000 -0.0000  0.0000  0.0000  0.0000  0.0000  0.0000      0.0000  0.0000  0.0000  0.0000  0.0000  0.0000  0.0000  0.0000  0.0000  0.0000
  o =  0.3722  v =  0.0000  0.0000  0.0000  0.0000  0.0000  0.3038  0.3971 -0.0000 -0.6878  0.5263      0.0000  0.0000  0.0000  0.0000  0.0000  0.0000  0.0000  0.0000  0.0000  0.0000
  o =  0.3722  v =  0.0000  0.0000  0.0000  0.0000  0.0000 -0.5263 -0.6878  0.0000 -0.3971  0.3038      0.0000  0.0000  0.0000  0.0000  0.0000  0.0000  0.0000  0.0000  0.0000  0.0000
  o =  0.3740  v =  0.3046  0.3965 -0.0000 -0.6868  0.5275  0.0000  0.0000  0.0000  0.0000  0.0000      0.0000  0.0000  0.0000  0.0000  0.0000  0.0000  0.0000  0.0000  0.0000  0.0000
  o =  0.3740  v = -0.5275 -0.6868  0.0000 -0.3965  0.3046  0.0000  0.0000  0.0000  0.0000  0.0000      0.0000  0.0000  0.0000  0.0000  0.0000  0.0000  0.0000  0.0000  0.0000  0.0000
 
atom =   3  type =  1  l = 2
 
 onsite density matrix
 
spin component  1
 
  0.2621 -0.0859 -0.0000 -0.0000 -0.0000
 -0.0859  0.3080  0.0000  0.0000 -0.0000
 -0.0000  0.0000  0.2333  0.0000  0.0000
 -0.0000  0.0000  0.0000  0.3080  0.0859
 -0.0000 -0.0000  0.0000  0.0859  0.2621
 
spin component  2
 
  0.2597 -0.0861 -0.0000 -0.0000 -0.0000
 -0.0861  0.3063  0.0000  0.0000 -0.0000
 -0.0000  0.0000  0.1963  0.0000  0.0000
 -0.0000  0.0000  0.0000  0.3063  0.0861
 -0.0000 -0.0000  0.0000  0.0861  0.2597
 
 occupancies and eigenvectors
 
  o =  0.1938  v =  0.0000  0.0000  0.0000  0.0000  0.0000 -0.3971 -0.3038 -0.0000  0.5263 -0.6878      0.0000  0.0000  0.0000  0.0000  0.0000  0.0000  0.0000  0.0000  0.0000  0.0000
  o =  0.1938  v =  0.0000  0.0000  0.0000  0.0000  0.0000 -0.6878 -0.5263 -0.0000 -0.3038  0.3971      0.0000  0.0000  0.0000  0.0000  0.0000  0.0000  0.0000  0.0000  0.0000  0.0000
  o =  0.1962  v = -0.3965 -0.3046 -0.0000  0.5275 -0.6868  0.0000  0.0000  0.0000  0.0000  0.0000      0.0000  0.0000  0.0000  0.0000  0.0000  0.0000  0.0000  0.0000  0.0000  0.0000
  o =  0.1962  v = -0.6868 -0.5275 -0.0000 -0.3046  0.3965  0.0000  0.0000  0.0000  0.0000  0.0000      0.0000  0.0000  0.0000  0.0000  0.0000  0.0000  0.0000  0.0000  0.0000  0.0000
  o =  0.1963  v =  0.0000  0.0000  0.0000  0.0000  0.0000  0.0000  0.0000 -1.0000  0.0000 -0.0000      0.0000  0.0000  0.0000  0.0000  0.0000  0.0000  0.0000  0.0000  0.0000  0.0000
  o =  0.2333  v =  0.0000  0.0000 -1.0000  0.0000 -0.0000  0.0000  0.0000  0.0000  0.0000  0.0000      0.0000  0.0000  0.0000  0.0000  0.0000  0.0000  0.0000  0.0000  0.0000  0.0000
  o =  0.3722  v =  0.0000  0.0000  0.0000  0.0000  0.0000  0.3038 -0.3971 -0.0000  0.6878  0.5263      0.0000  0.0000  0.0000  0.0000  0.0000  0.0000  0.0000  0.0000  0.0000  0.0000
  o =  0.3722  v =  0.0000  0.0000  0.0000  0.0000  0.0000 -0.5263  0.6878  0.0000  0.3971  0.3038      0.0000  0.0000  0.0000  0.0000  0.0000  0.0000  0.0000  0.0000  0.0000  0.0000
  o =  0.3740  v =  0.3046 -0.3965 -0.0000  0.6868  0.5275  0.0000  0.0000  0.0000  0.0000  0.0000      0.0000  0.0000  0.0000  0.0000  0.0000  0.0000  0.0000  0.0000  0.0000  0.0000
  o =  0.3740  v = -0.5275  0.6868  0.0000  0.3965  0.3046  0.0000  0.0000  0.0000  0.0000  0.0000      0.0000  0.0000  0.0000  0.0000  0.0000  0.0000  0.0000  0.0000  0.0000  0.0000
 
atom =   4  type =  1  l = 2
 
 onsite density matrix
 
spin component  1
 
  0.2458  0.0723 -0.0000  0.0000 -0.0000
  0.0723  0.2133 -0.0000  0.0000  0.0000
 -0.0000 -0.0000  0.9511 -0.0000  0.0000
  0.0000  0.0000 -0.0000  0.2133 -0.0723
 -0.0000  0.0000  0.0000 -0.0723  0.2458
 
spin component  2
 
  0.2106  0.0702 -0.0000  0.0000 -0.0000
  0.0702  0.1955 -0.0000  0.0000  0.0000
 -0.0000 -0.0000  0.1056 -0.0000  0.0000
  0.0000  0.0000 -0.0000  0.1955 -0.0702
 -0.0000  0.0000  0.0000 -0.0702  0.2106
 
 occupancies and eigenvectors
 
  o =  0.1056  v =  0.0000  0.0000  0.0000  0.0000  0.0000 -0.0000  0.0000 -1.0000  0.0000  0.0000      0.0000  0.0000  0.0000  0.0000  0.0000  0.0000  0.0000  0.0000  0.0000  0.0000
  o =  0.1324  v =  0.0000  0.0000  0.0000  0.0000  0.0000  0.3341 -0.3720  0.0000  0.6443  0.5787      0.0000  0.0000  0.0000  0.0000  0.0000  0.0000  0.0000  0.0000  0.0000  0.0000
  o =  0.1324  v =  0.0000  0.0000  0.0000  0.0000  0.0000  0.5787 -0.6443 -0.0000 -0.3720 -0.3341      0.0000  0.0000  0.0000  0.0000  0.0000  0.0000  0.0000  0.0000  0.0000  0.0000
  o =  0.1554  v =  0.3124 -0.3904 -0.0000  0.6762  0.5411  0.0000  0.0000  0.0000  0.0000  0.0000      0.0000  0.0000  0.0000  0.0000  0.0000  0.0000  0.0000  0.0000  0.0000  0.0000
  o =  0.1554  v =  0.5411 -0.6762  0.0000 -0.3904 -0.3124  0.0000  0.0000  0.0000  0.0000  0.0000      0.0000  0.0000  0.0000  0.0000  0.0000  0.0000  0.0000  0.0000  0.0000  0.0000
  o =  0.2737  v =  0.0000  0.0000  0.0000  0.0000  0.0000  0.3720  0.3341 -0.0000 -0.5787  0.6443      0.0000  0.0000  0.0000  0.0000  0.0000  0.0000  0.0000  0.0000  0.0000  0.0000
  o =  0.2737  v =  0.0000  0.0000  0.0000  0.0000  0.0000 -0.6443 -0.5787  0.0000 -0.3341  0.3720      0.0000  0.0000  0.0000  0.0000  0.0000  0.0000  0.0000  0.0000  0.0000  0.0000
  o =  0.3036  v =  0.3904  0.3124  0.0000 -0.5411  0.6762  0.0000  0.0000  0.0000  0.0000  0.0000      0.0000  0.0000  0.0000  0.0000  0.0000  0.0000  0.0000  0.0000  0.0000  0.0000
  o =  0.3036  v = -0.6762 -0.5411 -0.0000 -0.3124  0.3904  0.0000  0.0000  0.0000  0.0000  0.0000      0.0000  0.0000  0.0000  0.0000  0.0000  0.0000  0.0000  0.0000  0.0000  0.0000
  o =  0.9511  v =  0.0000  0.0000 -1.0000  0.0000 -0.0000  0.0000  0.0000  0.0000  0.0000  0.0000      0.0000  0.0000  0.0000  0.0000  0.0000  0.0000  0.0000  0.0000  0.0000  0.0000
 
atom =   5  type =  2  l = 0
 
 onsite density matrix
 
spin component  1
 
  0.8812
 
spin component  2
 
  0.8812
 
 occupancies and eigenvectors
 
  o =  0.8812  v =  0.0000  1.0000      0.0000  0.0000
  o =  0.8812  v =  1.0000  0.0000      0.0000  0.0000
 
atom =   6  type =  2  l = 0
 
 onsite density matrix
 
spin component  1
 
  0.8812
 
spin component  2
 
  0.8812
 
 occupancies and eigenvectors
 
  o =  0.8812  v =  0.0000  1.0000      0.0000  0.0000
  o =  0.8812  v =  1.0000  0.0000      0.0000  0.0000
 
atom =   7  type =  2  l = 0
 
 onsite density matrix
 
spin component  1
 
  0.8812
 
spin component  2
 
  0.8812
 
 occupancies and eigenvectors
 
  o =  0.8812  v =  0.0000  1.0000      0.0000  0.0000
  o =  0.8812  v =  1.0000  0.0000      0.0000  0.0000
 
atom =   8  type =  2  l = 0
 
 onsite density matrix
 
spin component  1
 
  0.8812
 
spin component  2
 
  0.8812
 
 occupancies and eigenvectors
 
  o =  0.8812  v =  0.0000  1.0000      0.0000  0.0000
  o =  0.8812  v =  1.0000  0.0000      0.0000  0.0000
 
atom =   9  type =  2  l = 0
 
 onsite density matrix
 
spin component  1
 
  0.8766
 
spin component  2
 
  0.8765
 
 occupancies and eigenvectors
 
  o =  0.8765  v =  0.0000  1.0000      0.0000  0.0000
  o =  0.8766  v =  1.0000  0.0000      0.0000  0.0000
 
atom =  10  type =  2  l = 0
 
 onsite density matrix
 
spin component  1
 
  0.8812
 
spin component  2
 
  0.8812
 
 occupancies and eigenvectors
 
  o =  0.8812  v =  0.0000  1.0000      0.0000  0.0000
  o =  0.8812  v =  1.0000  0.0000      0.0000  0.0000
 
atom =  11  type =  2  l = 0
 
 onsite density matrix
 
spin component  1
 
  0.8790
 
spin component  2
 
  0.8789
 
 occupancies and eigenvectors
 
  o =  0.8789  v =  0.0000  1.0000      0.0000  0.0000
  o =  0.8790  v =  1.0000  0.0000      0.0000  0.0000
 
atom =  12  type =  2  l = 0
 
 onsite density matrix
 
spin component  1
 
  0.8812
 
spin component  2
 
  0.8812
 
 occupancies and eigenvectors
 
  o =  0.8812  v =  0.0000  1.0000      0.0000  0.0000
  o =  0.8812  v =  1.0000  0.0000      0.0000  0.0000
 
atom =  13  type =  2  l = 0
 
 onsite density matrix
 
spin component  1
 
  0.8766
 
spin component  2
 
  0.8765
 
 occupancies and eigenvectors
 
  o =  0.8765  v =  0.0000  1.0000      0.0000  0.0000
  o =  0.8766  v =  1.0000  0.0000      0.0000  0.0000
 
atom =  14  type =  2  l = 0
 
 onsite density matrix
 
spin component  1
 
  0.8790
 
spin component  2
 
  0.8789
 
 occupancies and eigenvectors
 
  o =  0.8789  v =  0.0000  1.0000      0.0000  0.0000
  o =  0.8790  v =  1.0000  0.0000      0.0000  0.0000
 
atom =  15  type =  2  l = 0
 
 onsite density matrix
 
spin component  1
 
  0.8766
 
spin component  2
 
  0.8765
 
 occupancies and eigenvectors
 
  o =  0.8765  v =  0.0000  1.0000      0.0000  0.0000
  o =  0.8766  v =  1.0000  0.0000      0.0000  0.0000
 
atom =  16  type =  2  l = 0
 
 onsite density matrix
 
spin component  1
 
  0.8790
 
spin component  2
 
  0.8789
 
 occupancies and eigenvectors
 
  o =  0.8789  v =  0.0000  1.0000      0.0000  0.0000
  o =  0.8790  v =  1.0000  0.0000      0.0000  0.0000
 
atom =  17  type =  2  l = 0
 
 onsite density matrix
 
spin component  1
 
  0.8790
 
spin component  2
 
  0.8789
 
 occupancies and eigenvectors
 
  o =  0.8789  v =  0.0000  1.0000      0.0000  0.0000
  o =  0.8790  v =  1.0000  0.0000      0.0000  0.0000
 
atom =  18  type =  2  l = 0
 
 onsite density matrix
 
spin component  1
 
  0.8766
 
spin component  2
 
  0.8765
 
 occupancies and eigenvectors
 
  o =  0.8765  v =  0.0000  1.0000      0.0000  0.0000
  o =  0.8766  v =  1.0000  0.0000      0.0000  0.0000
 
atom =  19  type =  2  l = 0
 
 onsite density matrix
 
spin component  1
 
  0.8790
 
spin component  2
 
  0.8789
 
 occupancies and eigenvectors
 
  o =  0.8789  v =  0.0000  1.0000      0.0000  0.0000
  o =  0.8790  v =  1.0000  0.0000      0.0000  0.0000
 
atom =  20  type =  2  l = 0
 
 onsite density matrix
 
spin component  1
 
  0.8766
 
spin component  2
 
  0.8765
 
 occupancies and eigenvectors
 
  o =  0.8765  v =  0.0000  1.0000      0.0000  0.0000
  o =  0.8766  v =  1.0000  0.0000      0.0000  0.0000
 
atom =  21  type =  2  l = 0
 
 onsite density matrix
 
spin component  1
 
  0.8790
 
spin component  2
 
  0.8789
 
 occupancies and eigenvectors
 
  o =  0.8789  v =  0.0000  1.0000      0.0000  0.0000
  o =  0.8790  v =  1.0000  0.0000      0.0000  0.0000
 
atom =  22  type =  2  l = 0
 
 onsite density matrix
 
spin component  1
 
  0.8766
 
spin component  2
 
  0.8765
 
 occupancies and eigenvectors
 
  o =  0.8765  v =  0.0000  1.0000      0.0000  0.0000
  o =  0.8766  v =  1.0000  0.0000      0.0000  0.0000
 
     EDDAV:  cpu time     60.7016: real time     63.0103
 BZINTS: Fermi energy:   14.974862;  170.000000 electrons
         Band energy:-0.396746E+03;  BLOECHL correction:   -0.117554
       DOS:  cpu time      4.1257: real time      4.2912
    --------------------------------------------
      LOOP:  cpu time     69.1633: real time     71.8954

 eigenvalue-minimisations  : 13864
 total energy-change (2. order) : 0.1983018E+04  (-0.1026157E+05)
 number of electron     170.0000068 magnetization       2.0000459
 augmentation part      170.0000068 magnetization       2.0000459

 Free energy of the ion-electron system (eV)
  ---------------------------------------------------
  alpha Z        PSCENC =       518.25111127
  Ewald energy   TEWEN  =     -9284.37089945
  -Hartree energ DENC   =     -6778.46207508
  -exchange      EXHF   =         0.00000000
  -V(xc)+E(xc)   XCENC  =       782.02924603
  PAW double counting   =     17624.22996182   -17641.57132623
  entropy T*S    EENTRO =         0.00000000
  eigenvalues    EBANDS =      -396.74619644
  atomic energy  EATOM  =     17159.65787611
  Solvation  Ediel_sol  =         0.00000000
  ---------------------------------------------------
  free energy    TOTEN  =      1983.01769803 eV

  energy without entropy =     1983.01769803  energy(sigma->0) =     1983.01769803


--------------------------------------------------------------------------------------------------------




--------------------------------------- Iteration      1(   2)  ---------------------------------------


     EDDAV:  cpu time     57.8179: real time     61.0998
 BZINTS: Fermi energy:    0.024838;  170.000000 electrons
         Band energy:-0.230610E+04;  BLOECHL correction:   -0.011508
       DOS:  cpu time      4.9038: real time      5.0762
    --------------------------------------------
      LOOP:  cpu time     62.7217: real time     66.1760

 eigenvalue-minimisations  : 14296
 total energy-change (2. order) :-0.1909350E+04  (-0.1793365E+04)
 number of electron     170.0000068 magnetization       2.0000459
 augmentation part      170.0000068 magnetization       2.0000459

 Free energy of the ion-electron system (eV)
  ---------------------------------------------------
  alpha Z        PSCENC =       518.25111127
  Ewald energy   TEWEN  =     -9284.37089945
  -Hartree energ DENC   =     -6778.46207508
  -exchange      EXHF   =         0.00000000
  -V(xc)+E(xc)   XCENC  =       782.02924603
  PAW double counting   =     17624.22996182   -17641.57132623
  entropy T*S    EENTRO =         0.00000000
  eigenvalues    EBANDS =     -2306.09580410
  atomic energy  EATOM  =     17159.65787611
  Solvation  Ediel_sol  =         0.00000000
  ---------------------------------------------------
  free energy    TOTEN  =        73.66809037 eV

  energy without entropy =       73.66809037  energy(sigma->0) =       73.66809037


--------------------------------------------------------------------------------------------------------




--------------------------------------- Iteration      1(   3)  ---------------------------------------


     EDDAV:  cpu time     61.7816: real time     64.0094
 BZINTS: Fermi energy:   -0.960654;  170.000000 electrons
         Band energy:-0.249137E+04;  BLOECHL correction:    0.000000
       DOS:  cpu time      4.7149: real time      4.8868
    --------------------------------------------
      LOOP:  cpu time     66.4965: real time     68.8963

 eigenvalue-minimisations  : 14752
 total energy-change (2. order) :-0.1852720E+03  (-0.1789227E+03)
 number of electron     170.0000068 magnetization       2.0000459
 augmentation part      170.0000068 magnetization       2.0000459

 Free energy of the ion-electron system (eV)
  ---------------------------------------------------
  alpha Z        PSCENC =       518.25111127
  Ewald energy   TEWEN  =     -9284.37089945
  -Hartree energ DENC   =     -6778.46207508
  -exchange      EXHF   =         0.00000000
  -V(xc)+E(xc)   XCENC  =       782.02924603
  PAW double counting   =     17624.22996182   -17641.57132623
  entropy T*S    EENTRO =         0.00000000
  eigenvalues    EBANDS =     -2491.36779661
  atomic energy  EATOM  =     17159.65787611
  Solvation  Ediel_sol  =         0.00000000
  ---------------------------------------------------
  free energy    TOTEN  =      -111.60390214 eV

  energy without entropy =     -111.60390214  energy(sigma->0) =     -111.60390214


--------------------------------------------------------------------------------------------------------




--------------------------------------- Iteration      1(   4)  ---------------------------------------


     EDDAV:  cpu time     63.5504: real time     65.9247
 BZINTS: Fermi energy:   -1.002885;  170.000000 electrons
         Band energy:-0.249554E+04;  BLOECHL correction:    0.000000
       DOS:  cpu time      4.2328: real time      4.3954
    --------------------------------------------
      LOOP:  cpu time     67.7832: real time     70.3200

 eigenvalue-minimisations  : 14848
 total energy-change (2. order) :-0.4173779E+01  (-0.4154768E+01)
 number of electron     170.0000068 magnetization       2.0000459
 augmentation part      170.0000068 magnetization       2.0000459

 Free energy of the ion-electron system (eV)
  ---------------------------------------------------
  alpha Z        PSCENC =       518.25111127
  Ewald energy   TEWEN  =     -9284.37089945
  -Hartree energ DENC   =     -6778.46207508
  -exchange      EXHF   =         0.00000000
  -V(xc)+E(xc)   XCENC  =       782.02924603
  PAW double counting   =     17624.22996182   -17641.57132623
  entropy T*S    EENTRO =         0.00000000
  eigenvalues    EBANDS =     -2495.54157576
  atomic energy  EATOM  =     17159.65787611
  Solvation  Ediel_sol  =         0.00000000
  ---------------------------------------------------
  free energy    TOTEN  =      -115.77768129 eV

  energy without entropy =     -115.77768129  energy(sigma->0) =     -115.77768129


--------------------------------------------------------------------------------------------------------




--------------------------------------- Iteration      1(   5)  ---------------------------------------


     EDDAV:  cpu time     63.3325: real time     65.7071
 BZINTS: Fermi energy:   -1.003693;  170.000000 electrons
         Band energy:-0.249561E+04;  BLOECHL correction:    0.000000
       DOS:  cpu time      3.5239: real time      3.6203
    --------------------------------------------
      LOOP:  cpu time     66.8565: real time     69.3274

 eigenvalue-minimisations  : 14880
 total energy-change (2. order) :-0.7071132E-01  (-0.7066540E-01)
 number of electron     170.0000068 magnetization       2.0000459
 augmentation part      170.0000068 magnetization       2.0000459

 Free energy of the ion-electron system (eV)
  ---------------------------------------------------
  alpha Z        PSCENC =       518.25111127
  Ewald energy   TEWEN  =     -9284.37089945
  -Hartree energ DENC   =     -6778.46207508
  -exchange      EXHF   =         0.00000000
  -V(xc)+E(xc)   XCENC  =       782.02924603
  PAW double counting   =     17624.22996182   -17641.57132623
  entropy T*S    EENTRO =         0.00000000
  eigenvalues    EBANDS =     -2495.61228708
  atomic energy  EATOM  =     17159.65787611
  Solvation  Ediel_sol  =         0.00000000
  ---------------------------------------------------
  free energy    TOTEN  =      -115.84839261 eV

  energy without entropy =     -115.84839261  energy(sigma->0) =     -115.84839261


--------------------------------------------------------------------------------------------------------




--------------------------------------- Iteration      1(   6)  ---------------------------------------


    EDDIAG:  cpu time     12.0459: real time     12.7242
  RMM-DIIS:  cpu time     34.4470: real time     35.7779
    ORTHCH:  cpu time      1.9055: real time      2.0345
 BZINTS: Fermi energy:   -1.003760;  170.000000 electrons
         Band energy:-0.249561E+04;  BLOECHL correction:    0.000000
       DOS:  cpu time      4.5484: real time      4.7128
    --------------------------------------------
      LOOP:  cpu time     52.9468: real time     55.2493

 eigenvalue-minimisations  : 14781
 total energy-change (2. order) :-0.1396768E-02  (-0.1396768E-02)
 number of electron     170.0000068 magnetization       2.0000459
 augmentation part      170.0000068 magnetization       2.0000459

 Free energy of the ion-electron system (eV)
  ---------------------------------------------------
  alpha Z        PSCENC =       518.25111127
  Ewald energy   TEWEN  =     -9284.37089945
  -Hartree energ DENC   =     -6778.46207508
  -exchange      EXHF   =         0.00000000
  -V(xc)+E(xc)   XCENC  =       782.02924603
  PAW double counting   =     17624.22996182   -17641.57132623
  entropy T*S    EENTRO =         0.00000000
  eigenvalues    EBANDS =     -2495.61368384
  atomic energy  EATOM  =     17159.65787611
  Solvation  Ediel_sol  =         0.00000000
  ---------------------------------------------------
  free energy    TOTEN  =      -115.84978937 eV

  energy without entropy =     -115.84978937  energy(sigma->0) =     -115.84978937


--------------------------------------------------------------------------------------------------------




--------------------------------------- Iteration      1(   7)  ---------------------------------------


    EDDIAG:  cpu time     11.8464: real time     12.3328
  RMM-DIIS:  cpu time     42.2845: real time     43.7970
    ORTHCH:  cpu time      1.9189: real time      2.1276
 BZINTS: Fermi energy:   -1.003953;  170.000000 electrons
         Band energy:-0.249561E+04;  BLOECHL correction:    0.000000
       DOS:  cpu time      3.5284: real time      3.6243
    --------------------------------------------
      LOOP:  cpu time     59.5781: real time     61.8816

 eigenvalue-minimisations  : 18014
 total energy-change (2. order) :-0.4014352E-03  (-0.3720057E-03)
 number of electron     170.0000068 magnetization       2.0000459
 augmentation part      170.0000068 magnetization       2.0000459

 Free energy of the ion-electron system (eV)
  ---------------------------------------------------
  alpha Z        PSCENC =       518.25111127
  Ewald energy   TEWEN  =     -9284.37089945
  -Hartree energ DENC   =     -6778.46207508
  -exchange      EXHF   =         0.00000000
  -V(xc)+E(xc)   XCENC  =       782.02924603
  PAW double counting   =     17624.22996182   -17641.57132623
  entropy T*S    EENTRO =         0.00000000
  eigenvalues    EBANDS =     -2495.61408528
  atomic energy  EATOM  =     17159.65787611
  Solvation  Ediel_sol  =         0.00000000
  ---------------------------------------------------
  free energy    TOTEN  =      -115.85019081 eV

  energy without entropy =     -115.85019081  energy(sigma->0) =     -115.85019081


--------------------------------------------------------------------------------------------------------




--------------------------------------- Iteration      1(   8)  ---------------------------------------


    EDDIAG:  cpu time     12.1474: real time     12.8101
  RMM-DIIS:  cpu time     46.5391: real time     48.2470
    ORTHCH:  cpu time      2.3929: real time      2.5517
 BZINTS: Fermi energy:   -1.003718;  170.000000 electrons
         Band energy:-0.249561E+04;  BLOECHL correction:    0.000000
       DOS:  cpu time      4.3901: real time      4.5678
    --------------------------------------------
      LOOP:  cpu time     65.4696: real time     68.1767

 eigenvalue-minimisations  : 18675
 total energy-change (2. order) :-0.5244171E-04  (-0.5556763E-04)
 number of electron     170.0000068 magnetization       2.0000459
 augmentation part      170.0000068 magnetization       2.0000459

 Free energy of the ion-electron system (eV)
  ---------------------------------------------------
  alpha Z        PSCENC =       518.25111127
  Ewald energy   TEWEN  =     -9284.37089945
  -Hartree energ DENC   =     -6778.46207508
  -exchange      EXHF   =         0.00000000
  -V(xc)+E(xc)   XCENC  =       782.02924603
  PAW double counting   =     17624.22996182   -17641.57132623
  entropy T*S    EENTRO =         0.00000000
  eigenvalues    EBANDS =     -2495.61413772
  atomic energy  EATOM  =     17159.65787611
  Solvation  Ediel_sol  =         0.00000000
  ---------------------------------------------------
  free energy    TOTEN  =      -115.85024325 eV

  energy without entropy =     -115.85024325  energy(sigma->0) =     -115.85024325


--------------------------------------------------------------------------------------------------------




--------------------------------------- Iteration      1(   9)  ---------------------------------------


    EDDIAG:  cpu time     10.8518: real time     11.7080
  RMM-DIIS:  cpu time     41.2629: real time     42.7785
    ORTHCH:  cpu time      2.4348: real time      2.9733
 BZINTS: Fermi energy:   -1.003634;  170.000000 electrons
         Band energy:-0.249561E+04;  BLOECHL correction:    0.000000
       DOS:  cpu time      4.0640: real time      4.2254
    --------------------------------------------
      LOOP:  cpu time     58.6135: real time     61.6852

 eigenvalue-minimisations  : 16740
 total energy-change (2. order) :-0.1779030E-05  (-0.2092199E-05)
 number of electron     170.0000068 magnetization       2.0000459
 augmentation part      170.0000068 magnetization       2.0000459

 Free energy of the ion-electron system (eV)
  ---------------------------------------------------
  alpha Z        PSCENC =       518.25111127
  Ewald energy   TEWEN  =     -9284.37089945
  -Hartree energ DENC   =     -6778.46207508
  -exchange      EXHF   =         0.00000000
  -V(xc)+E(xc)   XCENC  =       782.02924603
  PAW double counting   =     17624.22996182   -17641.57132623
  entropy T*S    EENTRO =         0.00000000
  eigenvalues    EBANDS =     -2495.61413950
  atomic energy  EATOM  =     17159.65787611
  Solvation  Ediel_sol  =         0.00000000
  ---------------------------------------------------
  free energy    TOTEN  =      -115.85024503 eV

  energy without entropy =     -115.85024503  energy(sigma->0) =     -115.85024503


--------------------------------------------------------------------------------------------------------




--------------------------------------- Iteration      1(  10)  ---------------------------------------


    EDDIAG:  cpu time     13.3797: real time     14.0110
  RMM-DIIS:  cpu time     28.9083: real time     29.9435
    ORTHCH:  cpu time      2.4328: real time      2.5899
 BZINTS: Fermi energy:   -1.003615;  170.000000 electrons
         Band energy:-0.249561E+04;  BLOECHL correction:    0.000000
       DOS:  cpu time      4.7374: real time      4.9099
    --------------------------------------------
      LOOP:  cpu time     49.4582: real time     51.4545

 eigenvalue-minimisations  : 11312
 total energy-change (2. order) :-0.2045563E-06  (-0.2592642E-06)
 number of electron     170.0000068 magnetization       2.0000459
 augmentation part      170.0000068 magnetization       2.0000459

 Free energy of the ion-electron system (eV)
  ---------------------------------------------------
  alpha Z        PSCENC =       518.25111127
  Ewald energy   TEWEN  =     -9284.37089945
  -Hartree energ DENC   =     -6778.46207508
  -exchange      EXHF   =         0.00000000
  -V(xc)+E(xc)   XCENC  =       782.02924603
  PAW double counting   =     17624.22996182   -17641.57132623
  entropy T*S    EENTRO =         0.00000000
  eigenvalues    EBANDS =     -2495.61413970
  atomic energy  EATOM  =     17159.65787611
  Solvation  Ediel_sol  =         0.00000000
  ---------------------------------------------------
  free energy    TOTEN  =      -115.85024524 eV

  energy without entropy =     -115.85024524  energy(sigma->0) =     -115.85024524


--------------------------------------------------------------------------------------------------------




 average (electrostatic) potential at core
  the test charge radii are     0.9339  0.7167
  (the norm of the test charge is              1.0000)
       1 -55.9407       2 -58.2939       3 -58.2939       4 -55.9407       5 -81.3369
       6 -81.3369       7 -81.3369       8 -81.3369       9 -80.5868      10 -81.3369
      11 -80.0643      12 -81.3369      13 -80.5868      14 -80.0643      15 -80.5868
      16 -80.0643      17 -80.0643      18 -80.5868      19 -80.0643      20 -80.5868
      21 -80.0643      22 -80.5868
 
 
 
 E-fermi :  -1.0036     XC(G=0):  -8.7278     alpha+bet : -6.2738

 Fermi energy:        -1.0036149905

 spin component 1

 k-point     1 :       0.0000    0.0000    0.0000
  band No.  band energies     occupation 
      1     -43.1052      1.00000
      2     -43.1052      1.00000
      3     -43.1052      1.00000
      4     -43.1052      1.00000
      5     -43.0933      1.00000
      6     -43.0932      1.00000
      7     -41.5679      1.00000
      8     -41.5679      1.00000
      9     -41.5679      1.00000
     10     -41.5679      1.00000
     11     -41.1179      1.00000
     12     -41.1179      1.00000
     13     -25.0471      1.00000
     14     -25.0355      1.00000
     15     -24.5567      1.00000
     16     -24.5567      1.00000
     17     -24.5562      1.00000
     18     -24.5562      1.00000
     19     -24.4142      1.00000
     20     -24.3916      1.00000
     21     -23.9534      1.00000
     22     -23.9534      1.00000
     23     -23.9525      1.00000
     24     -23.9525      1.00000
     25     -23.5999      1.00000
     26     -23.5883      1.00000
     27     -23.3051      1.00000
     28     -23.3051      1.00000
     29     -23.3047      1.00000
     30     -23.3047      1.00000
     31      -7.8625      1.00000
     32      -7.7744      1.00000
     33      -7.6777      1.00000
     34      -7.6777      1.00000
     35      -7.6777      1.00000
     36      -7.6777      1.00000
     37      -7.4005      1.00000
     38      -7.2203      1.00000
     39      -7.1269      1.00000
     40      -7.1269      1.00000
     41      -7.0923      1.00000
     42      -7.0923      1.00000
     43      -6.5436      1.00000
     44      -6.4757      1.00000
     45      -6.4303      1.00000
     46      -6.4303      1.00000
     47      -6.4011      1.00000
     48      -6.4011      1.00000
     49      -6.2519      1.00000
     50      -6.0764      1.00000
     51      -6.0764      1.00000
     52      -6.0563      1.00000
     53      -6.0563      1.00000
     54      -5.8931      1.00000
     55      -5.5673      1.00000
     56      -5.5673      1.00000
     57      -5.5506      1.00000
     58      -5.5343      1.00000
     59      -5.5236      1.00000
     60      -5.4943      1.00000
     61      -5.4943      1.00000
     62      -5.3017      1.00000
     63      -5.2942      1.00000
     64      -5.2942      1.00000
     65      -5.2415      1.00000
     66      -5.1999      1.00000
     67      -5.1999      1.00000
     68      -5.1897      1.00000
     69      -4.9253      1.00000
     70      -4.9253      1.00000
     71      -4.8052      1.00000
     72      -4.8052      1.00000
     73      -4.6509      1.00000
     74      -4.6029      1.00000
     75      -4.2840      1.00000
     76      -4.2462      1.00000
     77      -4.2399      1.00000
     78      -4.2399      1.00000
     79      -4.2325      1.00000
     80      -4.2325      1.00000
     81      -4.0262      1.00000
     82      -4.0262      1.00000
     83      -3.9942      1.00000
     84      -3.9942      1.00000
     85      -1.7217      1.00000
     86      -1.6698      1.00000
     87      -1.0036      0.00000
     88      -0.9870      0.00000
     89      -0.8362      0.00000
     90      -0.8362      0.00000
     91      -0.8172      0.00000
     92      -0.8172      0.00000
     93       0.5253      0.00000
     94       0.5253      0.00000
     95       0.5253      0.00000
     96       0.5253      0.00000
     97       1.2095      0.00000
     98       1.2095      0.00000
     99       1.2205      0.00000
    100       1.2205      0.00000
    101       2.0847      0.00000
    102       2.0847      0.00000
    103       2.1014      0.00000
    104       2.1014      0.00000
    105       5.1169      0.00000
    106       6.1457      0.00000
    107       6.2047      0.00000
    108       8.4908      0.00000
    109       8.6089      0.00000
    110      11.0300      0.00000
    111      11.5990      0.00000
    112      11.8898      0.00000
    113      11.9815      0.00000
    114      12.1402      0.00000
    115      12.1781      0.00000
    116      12.4667      0.00000
    117      12.4879      0.00000
    118      12.9387      0.00000
    119      13.0005      0.00000
    120      13.2035      0.00000

 k-point     2 :       0.1000   -0.0000    0.0000
  band No.  band energies     occupation 
      1     -43.1052      1.00000
      2     -43.1052      1.00000
      3     -43.1052      1.00000
      4     -43.1052      1.00000
      5     -43.0933      1.00000
      6     -43.0932      1.00000
      7     -41.5680      1.00000
      8     -41.5680      1.00000
      9     -41.5679      1.00000
     10     -41.5679      1.00000
     11     -41.1179      1.00000
     12     -41.1178      1.00000
     13     -25.0375      1.00000
     14     -25.0262      1.00000
     15     -24.5617      1.00000
     16     -24.5615      1.00000
     17     -24.5586      1.00000
     18     -24.5581      1.00000
     19     -24.4069      1.00000
     20     -24.3852      1.00000
     21     -23.9598      1.00000
     22     -23.9589      1.00000
     23     -23.9556      1.00000
     24     -23.9547      1.00000
     25     -23.5923      1.00000
     26     -23.5812      1.00000
     27     -23.3106      1.00000
     28     -23.3101      1.00000
     29     -23.3084      1.00000
     30     -23.3079      1.00000
     31      -7.8475      1.00000
     32      -7.7650      1.00000
     33      -7.6895      1.00000
     34      -7.6878      1.00000
     35      -7.6845      1.00000
     36      -7.6791      1.00000
     37      -7.3888      1.00000
     38      -7.2241      1.00000
     39      -7.1423      1.00000
     40      -7.1252      1.00000
     41      -7.1063      1.00000
     42      -7.0964      1.00000
     43      -6.5520      1.00000
     44      -6.4705      1.00000
     45      -6.4307      1.00000
     46      -6.4300      1.00000
     47      -6.4138      1.00000
     48      -6.3888      1.00000
     49      -6.2441      1.00000
     50      -6.0876      1.00000
     51      -6.0610      1.00000
     52      -6.0552      1.00000
     53      -6.0293      1.00000
     54      -5.9114      1.00000
     55      -5.6134      1.00000
     56      -5.5866      1.00000
     57      -5.5317      1.00000
     58      -5.5057      1.00000
     59      -5.5022      1.00000
     60      -5.4955      1.00000
     61      -5.4704      1.00000
     62      -5.3534      1.00000
     63      -5.3250      1.00000
     64      -5.2882      1.00000
     65      -5.2612      1.00000
     66      -5.2227      1.00000
     67      -5.1244      1.00000
     68      -5.1062      1.00000
     69      -4.9542      1.00000
     70      -4.9338      1.00000
     71      -4.8261      1.00000
     72      -4.8219      1.00000
     73      -4.6019      1.00000
     74      -4.5551      1.00000
     75      -4.2867      1.00000
     76      -4.2715      1.00000
     77      -4.2701      1.00000
     78      -4.2582      1.00000
     79      -4.2188      1.00000
     80      -4.2067      1.00000
     81      -4.0527      1.00000
     82      -4.0284      1.00000
     83      -4.0194      1.00000
     84      -3.9986      1.00000
     85      -1.7145      1.00000
     86      -1.6641      1.00000
     87      -0.9989      0.00000
     88      -0.9801      0.00000
     89      -0.8430      0.00000
     90      -0.8370      0.00000
     91      -0.8243      0.00000
     92      -0.8177      0.00000
     93       0.5165      0.00000
     94       0.5172      0.00000
     95       0.5194      0.00000
     96       0.5205      0.00000
     97       1.2072      0.00000
     98       1.2087      0.00000
     99       1.2169      0.00000
    100       1.2200      0.00000
    101       2.0819      0.00000
    102       2.0840      0.00000
    103       2.0934      0.00000
    104       2.1013      0.00000
    105       5.2377      0.00000
    106       6.2576      0.00000
    107       6.3079      0.00000
    108       8.5771      0.00000
    109       8.6930      0.00000
    110      11.1159      0.00000
    111      11.4458      0.00000
    112      11.4648      0.00000
    113      11.7495      0.00000
    114      11.8404      0.00000
    115      12.0288      0.00000
    116      12.1994      0.00000
    117      12.4271      0.00000
    118      12.4763      0.00000
    119      12.6927      0.00000
    120      12.7956      0.00000

 k-point     3 :       0.2000   -0.0000    0.0000
  band No.  band energies     occupation 
      1     -43.1053      1.00000
      2     -43.1053      1.00000
      3     -43.1052      1.00000
      4     -43.1052      1.00000
      5     -43.0933      1.00000
      6     -43.0932      1.00000
      7     -41.5681      1.00000
      8     -41.5681      1.00000
      9     -41.5680      1.00000
     10     -41.5680      1.00000
     11     -41.1179      1.00000
     12     -41.1178      1.00000
     13     -25.0112      1.00000
     14     -25.0005      1.00000
     15     -24.5751      1.00000
     16     -24.5750      1.00000
     17     -24.5634      1.00000
     18     -24.5629      1.00000
     19     -24.3889      1.00000
     20     -24.3694      1.00000
     21     -23.9771      1.00000
     22     -23.9762      1.00000
     23     -23.9616      1.00000
     24     -23.9607      1.00000
     25     -23.5705      1.00000
     26     -23.5607      1.00000
     27     -23.3269      1.00000
     28     -23.3263      1.00000
     29     -23.3164      1.00000
     30     -23.3158      1.00000
     31      -7.8085      1.00000
     32      -7.7541      1.00000
     33      -7.7309      1.00000
     34      -7.7249      1.00000
     35      -7.6945      1.00000
     36      -7.6764      1.00000
     37      -7.3586      1.00000
     38      -7.2412      1.00000
     39      -7.1772      1.00000
     40      -7.1305      1.00000
     41      -7.0835      1.00000
     42      -7.0628      1.00000
     43      -6.5657      1.00000
     44      -6.5358      1.00000
     45      -6.4719      1.00000
     46      -6.4469      1.00000
     47      -6.3666      1.00000
     48      -6.3637      1.00000
     49      -6.2429      1.00000
     50      -6.1092      1.00000
     51      -6.0654      1.00000
     52      -5.9871      1.00000
     53      -5.9646      1.00000
     54      -5.9337      1.00000
     55      -5.7050      1.00000
     56      -5.6299      1.00000
     57      -5.5157      1.00000
     58      -5.5150      1.00000
     59      -5.5073      1.00000
     60      -5.4652      1.00000
     61      -5.3757      1.00000
     62      -5.3659      1.00000
     63      -5.3551      1.00000
     64      -5.2742      1.00000
     65      -5.2426      1.00000
     66      -5.2419      1.00000
     67      -5.0574      1.00000
[...]
  0.000  -0.000  -0.028  -0.000   0.000   0.020  -0.000   0.000
 -0.000  -0.000  -0.020   0.000   0.000   0.004  -0.000   0.000
 -0.000   0.012  -0.000   0.000  -0.014   0.000  -0.000   0.000
 -0.000   0.038  -0.000   0.000  -0.039   0.000  -0.000   0.000
 total augmentation occupancy for first ion, spin component:           1
  2.000   0.000   0.000   0.000   0.000   0.000   0.000   0.000   0.000   0.000   0.000   0.000   0.000   0.000   0.000   0.000
  0.000   2.000   0.000   0.000   0.000   0.000   0.000   0.000   0.000   0.000   0.000   0.000   0.000   0.000   0.000   0.000
  0.000   0.000   2.000   0.000   0.000   0.000   0.000   0.000   0.000   0.000   0.000   0.000   0.000   0.000   0.000   0.000
  0.000   0.000   0.000   0.000   0.000   0.000   0.000   0.000   0.000   0.000   0.000   0.000   0.000   0.000   0.000   0.000
  0.000   0.000   0.000   0.000   0.000   0.000   0.000   0.000   0.000   0.000   0.000   0.000   0.000   0.000   0.000   0.000
  0.000   0.000   0.000   0.000   0.000   0.000   0.000   0.000   0.000   0.000   0.000   0.000   0.000   0.000   0.000   0.000
  0.000   0.000   0.000   0.000   0.000   0.000   0.800   0.000   0.000   0.000   0.000   0.000   0.000   0.000   0.000   0.000
  0.000   0.000   0.000   0.000   0.000   0.000   0.000   0.800   0.000   0.000   0.000   0.000   0.000   0.000   0.000   0.000
  0.000   0.000   0.000   0.000   0.000   0.000   0.000   0.000   0.800   0.000   0.000   0.000   0.000   0.000   0.000   0.000
  0.000   0.000   0.000   0.000   0.000   0.000   0.000   0.000   0.000   0.800   0.000   0.000   0.000   0.000   0.000   0.000
  0.000   0.000   0.000   0.000   0.000   0.000   0.000   0.000   0.000   0.000   0.800   0.000   0.000   0.000   0.000   0.000
  0.000   0.000   0.000   0.000   0.000   0.000   0.000   0.000   0.000   0.000   0.000   0.000   0.000   0.000   0.000   0.000
  0.000   0.000   0.000   0.000   0.000   0.000   0.000   0.000   0.000   0.000   0.000   0.000   0.000   0.000   0.000   0.000
  0.000   0.000   0.000   0.000   0.000   0.000   0.000   0.000   0.000   0.000   0.000   0.000   0.000   0.000   0.000   0.000
  0.000   0.000   0.000   0.000   0.000   0.000   0.000   0.000   0.000   0.000   0.000   0.000   0.000   0.000   0.000   0.000
  0.000   0.000   0.000   0.000   0.000   0.000   0.000   0.000   0.000   0.000   0.000   0.000   0.000   0.000   0.000   0.000
  0.000   0.000   0.000   0.000   0.000   0.000   0.000   0.000   0.000   0.000   0.000   0.000   0.000   0.000   0.000   0.000
  0.000   0.000   0.000   0.000   0.000   0.000   0.000   0.000   0.000   0.000   0.000   0.000   0.000   0.000   0.000   0.000
 total augmentation occupancy for first ion, spin component:           2
  0.909   0.000   0.000   0.000   0.000   0.000   0.000   0.000   0.000   0.000   0.000   0.000   0.000   0.000   0.000   0.000
  0.000   0.909   0.000   0.000   0.000   0.000   0.000   0.000   0.000   0.000   0.000   0.000   0.000   0.000   0.000   0.000
  0.000   0.000   0.909   0.000   0.000   0.000   0.000   0.000   0.000   0.000   0.000   0.000   0.000   0.000   0.000   0.000
  0.000   0.000   0.000   0.000   0.000   0.000   0.000   0.000   0.000   0.000   0.000   0.000   0.000   0.000   0.000   0.000
  0.000   0.000   0.000   0.000   0.000   0.000   0.000   0.000   0.000   0.000   0.000   0.000   0.000   0.000   0.000   0.000
  0.000   0.000   0.000   0.000   0.000   0.000   0.000   0.000   0.000   0.000   0.000   0.000   0.000   0.000   0.000   0.000
  0.000   0.000   0.000   0.000   0.000   0.000   0.364   0.000   0.000   0.000   0.000   0.000   0.000   0.000   0.000   0.000
  0.000   0.000   0.000   0.000   0.000   0.000   0.000   0.364   0.000   0.000   0.000   0.000   0.000   0.000   0.000   0.000
  0.000   0.000   0.000   0.000   0.000   0.000   0.000   0.000   0.364   0.000   0.000   0.000   0.000   0.000   0.000   0.000
  0.000   0.000   0.000   0.000   0.000   0.000   0.000   0.000   0.000   0.364   0.000   0.000   0.000   0.000   0.000   0.000
  0.000   0.000   0.000   0.000   0.000   0.000   0.000   0.000   0.000   0.000   0.364   0.000   0.000   0.000   0.000   0.000
  0.000   0.000   0.000   0.000   0.000   0.000   0.000   0.000   0.000   0.000   0.000   0.000   0.000   0.000   0.000   0.000
  0.000   0.000   0.000   0.000   0.000   0.000   0.000   0.000   0.000   0.000   0.000   0.000   0.000   0.000   0.000   0.000
  0.000   0.000   0.000   0.000   0.000   0.000   0.000   0.000   0.000   0.000   0.000   0.000   0.000   0.000   0.000   0.000
  0.000   0.000   0.000   0.000   0.000   0.000   0.000   0.000   0.000   0.000   0.000   0.000   0.000   0.000   0.000   0.000
  0.000   0.000   0.000   0.000   0.000   0.000   0.000   0.000   0.000   0.000   0.000   0.000   0.000   0.000   0.000   0.000
  0.000   0.000   0.000   0.000   0.000   0.000   0.000   0.000   0.000   0.000   0.000   0.000   0.000   0.000   0.000   0.000
  0.000   0.000   0.000   0.000   0.000   0.000   0.000   0.000   0.000   0.000   0.000   0.000   0.000   0.000   0.000   0.000


------------------------ aborting loop because EDIFF is reached ----------------------------------------





 total charge

# of ion       s       p       d       tot
------------------------------------------
    1        0.305   6.327   2.756   9.388
    2        0.361   6.453   2.667   9.481
    3        0.361   6.453   2.667   9.481
    4        0.305   6.327   2.756   9.388
    5        1.751   4.280   0.000   6.031
    6        1.751   4.280   0.000   6.031
    7        1.751   4.280   0.000   6.031
    8        1.751   4.280   0.000   6.031
    9        1.742   4.334   0.000   6.076
   10        1.751   4.280   0.000   6.031
   11        1.747   4.305   0.000   6.051
   12        1.751   4.280   0.000   6.031
   13        1.742   4.334   0.000   6.076
   14        1.747   4.305   0.000   6.051
   15        1.742   4.334   0.000   6.076
   16        1.747   4.305   0.000   6.051
   17        1.747   4.305   0.000   6.051
   18        1.742   4.334   0.000   6.076
   19        1.747   4.305   0.000   6.051
   20        1.742   4.334   0.000   6.076
   21        1.747   4.305   0.000   6.051
   22        1.742   4.334   0.000   6.076
--------------------------------------------------
tot         32.768 103.071  10.848 146.687



 magnetization (x)

# of ion       s       p       d       tot
------------------------------------------
    1        0.009   0.005   0.950   0.964
    2        0.001   0.000   0.045   0.046
    3        0.001   0.000   0.045   0.046
    4        0.009   0.005   0.950   0.964
    5        0.000  -0.003   0.000  -0.003
    6        0.000  -0.003   0.000  -0.003
    7        0.000  -0.003   0.000  -0.003
    8        0.000  -0.003   0.000  -0.003
    9        0.000  -0.002   0.000  -0.002
   10        0.000  -0.003   0.000  -0.003
   11        0.000  -0.008   0.000  -0.008
   12        0.000  -0.003   0.000  -0.003
   13        0.000  -0.002   0.000  -0.002
   14        0.000  -0.008   0.000  -0.008
   15        0.000  -0.002   0.000  -0.002
   16        0.000  -0.008   0.000  -0.008
   17        0.000  -0.008   0.000  -0.008
   18        0.000  -0.002   0.000  -0.002
   19        0.000  -0.008   0.000  -0.008
   20        0.000  -0.002   0.000  -0.002
   21        0.000  -0.008   0.000  -0.008
   22        0.000  -0.002   0.000  -0.002
--------------------------------------------------
tot          0.021  -0.067   1.990   1.944
 
    CHARGE:  cpu time      4.7397: real time      6.6897
    FORLOC:  cpu time      0.0188: real time      0.0193
    FORNL :  cpu time     17.4454: real time     18.4226
    STRESS:  cpu time     53.3562: real time     55.2576
    FORCOR:  cpu time      0.3793: real time      0.3900
    FORHAR:  cpu time      0.0470: real time      0.0483
    OFIELD:  cpu time      0.0009: real time      0.0009

 ---------------------------------------------------------------------------------------------

         DFTD3 V3.0 Rev 1        
 IVDW         = 12
 DF pbe       
 parameters
 VDW_S6       =    1.0000
 VDW_S8       =    0.7875
 VDW_A1       =    0.4289
 VDW_A2       =    4.4407
 k1-k3        =   16.0000    1.3333   -4.0000
 VDW_RADIUS   =   50.2022 A
 VDW_CNRADIUS =   21.1671 A
 Edisp (eV)   -1.75317

 E6    (eV) :    -1.1715
 E8    (eV) :    -0.5817
 % E8        : 33.18
    FORVDW:  cpu time      1.0307: real time      1.0587

  FORCE on cell =-STRESS in cart. coord.  units (eV):
  Direction    XX          YY          ZZ          XY          YZ          ZX
  --------------------------------------------------------------------------------------
  Alpha Z   518.25111   518.25111   518.25111
  Ewald   -3359.37462 -3359.37477 -2565.65012    -0.00013     0.00000     0.00000
  Hartree  2086.26432  2086.26437  2605.91683     0.00004    -0.00000    -0.00000
  E(xc)    -955.72609  -955.72615  -956.25775    -0.00005    -0.00000    -0.00000
  Local   -1277.89442 -1277.89534 -2600.24199    -0.00080     0.00000     0.00000
  n-local  -965.42278  -965.39191  -972.01987    -0.04534    -0.00028    -0.00037
  augment   465.92154   465.92215   476.83872     0.00053    -0.00000     0.00000
  Kinetic  3490.06436  3490.18321  3495.14448    -0.48710     0.00027     0.00028
  Fock        0.00000     0.00000     0.00000     0.00000     0.00000     0.00000
  vdW        -2.03292    -2.03292    -1.85950     0.00000    -0.00000    -0.00000
  -------------------------------------------------------------------------------------
  Total       0.12513     0.12513     0.12190     0.00000     0.00000     0.00000
  in kB       0.64170     0.64170     0.62515     0.00000     0.00000     0.00000
  external pressure =        0.64 kB  Pullay stress =        0.00 kB


 VOLUME and BASIS-vectors are now :
 -----------------------------------------------------------------------------
  energy-cutoff  :      600.00
  volume of cell :      312.42
      direct lattice vectors                 reciprocal lattice vectors
     5.010500551 -0.000000015  0.000000000     0.199580859  0.115228038  0.000000000
    -2.505249883  4.339220990  0.000000000     0.000000001  0.230456113  0.000000000
     0.000000000 -0.000000000 14.369735988    -0.000000000 -0.000000000  0.069590701

  length of vectors
     5.010500551  5.010500551 14.369735988     0.230456113  0.230456113  0.069590701


 FORCES acting on ions
    electron-ion (+dipol)            ewald-force                    non-local-force                 convergence-correction
 -----------------------------------------------------------------------------------------------
   0.158E-04 0.273E-04 -.173E+03   -.186E-04 -.323E-04 0.176E+03   0.867E-18 0.173E-16 -.260E+01   0.428E-07 0.741E-07 -.154E-01
   0.106E-04 0.184E-04 0.197E+03   -.135E-04 -.233E-04 -.195E+03   0.000E+00 0.128E-16 -.184E+01   0.339E-07 0.588E-07 -.120E-01
   -.106E-04 -.184E-04 0.197E+03   0.135E-04 0.233E-04 -.195E+03   -.542E-19 0.128E-16 -.184E+01   -.339E-07 -.587E-07 -.120E-01
   -.159E-04 -.276E-04 -.173E+03   0.186E-04 0.323E-04 0.176E+03   0.217E-18 0.176E-16 -.260E+01   -.428E-07 -.741E-07 -.154E-01
   -.144E+03 0.249E+03 0.240E+03   0.159E+03 -.276E+03 -.258E+03   -.153E+02 0.265E+02 0.172E+02   0.172E-03 -.299E-03 0.116E-01
   -.288E+03 0.715E-05 0.240E+03   0.318E+03 -.248E-05 -.258E+03   -.306E+02 0.928E-07 0.172E+02   0.345E-03 0.298E-06 0.116E-01
   0.144E+03 -.249E+03 0.240E+03   -.159E+03 0.276E+03 -.258E+03   0.153E+02 -.265E+02 0.172E+02   -.172E-03 0.299E-03 0.116E-01
   -.144E+03 -.249E+03 0.240E+03   0.159E+03 0.276E+03 -.258E+03   -.153E+02 -.265E+02 0.172E+02   0.173E-03 0.299E-03 0.116E-01
   -.170E+03 -.294E+03 -.445E+02   0.184E+03 0.318E+03 0.493E+02   -.137E+02 -.237E+02 -.477E+01   -.220E-02 -.381E-02 -.123E-01
   0.288E+03 -.752E-05 0.240E+03   -.318E+03 0.248E-05 -.258E+03   0.306E+02 -.928E-07 0.172E+02   -.345E-03 -.298E-06 0.116E-01
   -.132E+03 -.229E+03 -.200E+03   0.147E+03 0.255E+03 0.215E+03   -.148E+02 -.256E+02 -.144E+02   -.389E-03 -.674E-03 0.150E-01
   0.144E+03 0.249E+03 0.240E+03   -.159E+03 -.276E+03 -.258E+03   0.153E+02 0.265E+02 0.172E+02   -.173E-03 -.299E-03 0.116E-01
   -.340E+03 0.106E-04 -.445E+02   0.367E+03 -.524E-05 0.493E+02   -.274E+02 0.830E-07 -.477E+01   -.440E-02 0.258E-06 -.123E-01
   -.264E+03 0.615E-05 -.200E+03   0.294E+03 -.813E-06 0.215E+03   -.295E+02 0.896E-07 -.144E+02   -.778E-03 0.296E-06 0.150E-01
   0.170E+03 0.294E+03 -.445E+02   -.184E+03 -.318E+03 0.493E+02   0.137E+02 0.237E+02 -.477E+01   0.220E-02 0.381E-02 -.123E-01
   0.132E+03 0.229E+03 -.200E+03   -.147E+03 -.255E+03 0.215E+03   0.148E+02 0.256E+02 -.144E+02   0.389E-03 0.674E-03 0.150E-01
   -.132E+03 0.229E+03 -.200E+03   0.147E+03 -.255E+03 0.215E+03   -.148E+02 0.256E+02 -.144E+02   -.389E-03 0.674E-03 0.150E-01
   -.170E+03 0.294E+03 -.445E+02   0.184E+03 -.318E+03 0.493E+02   -.137E+02 0.237E+02 -.477E+01   -.220E-02 0.381E-02 -.123E-01
   0.264E+03 -.604E-05 -.200E+03   -.294E+03 0.813E-06 0.215E+03   0.295E+02 -.896E-07 -.144E+02   0.778E-03 -.296E-06 0.150E-01
   0.340E+03 -.106E-04 -.445E+02   -.367E+03 0.524E-05 0.493E+02   0.274E+02 -.830E-07 -.477E+01   0.440E-02 -.258E-06 -.123E-01
   0.132E+03 -.229E+03 -.200E+03   -.147E+03 0.255E+03 0.215E+03   0.148E+02 -.256E+02 -.144E+02   0.389E-03 -.674E-03 0.150E-01
   0.170E+03 -.294E+03 -.445E+02   -.184E+03 0.318E+03 0.493E+02   0.137E+02 -.237E+02 -.477E+01   0.220E-02 -.381E-02 -.123E-01
 -----------------------------------------------------------------------------------------------
   -.326E-06 -.565E-06 0.208E+02   -.284E-12 0.512E-12 -.711E-14   0.107E-13 0.355E-14 -.208E+02   -.502E-10 -.106E-09 0.305E-01
 
 
 POSITION                                       TOTAL-FORCE (eV/Angst)
 -----------------------------------------------------------------------------------
      0.00000     -0.00000      5.10230        -0.000000      0.000000     -0.007913
      0.00000     -0.00000      2.18861        -0.000000      0.000000     -0.006457
      0.00000     -0.00000      9.37348        -0.000000      0.000000     -0.006457
      0.00000     -0.00000     12.28717        -0.000000      0.000000     -0.007913
      3.26556      3.02233      8.52824        -0.000883      0.001529      0.002181
      1.52061     -0.00000      1.34337        -0.001766      0.000000      0.002181
     -0.76031      1.31689      1.34337         0.000883     -0.001529      0.002181
      0.76031      1.31689      8.52824        -0.000883     -0.001529      0.002181
      0.69418      1.20236      3.52495         0.000678      0.001175      0.002267
      0.98464      4.33922      8.52824         0.001766     -0.000000      0.002181
      0.79164      1.37117     13.05908        -0.000446     -0.000773      0.000342
      1.74494      3.02233      1.34337         0.000883      0.001529      0.002181
      1.38836     -0.00000     10.70982         0.001356     -0.000000      0.002267
      1.58329     -0.00000      5.87421        -0.000892      0.000000      0.000342
      1.81107      3.13686     10.70982        -0.000678     -0.001175      0.002267
      1.71361      2.96805      5.87421         0.000446      0.000773      0.000342
      3.29689      2.96805     13.05908        -0.000446      0.000773      0.000342
      3.19943      3.13686      3.52495         0.000678     -0.001175      0.002267
      0.92196      4.33922     13.05908         0.000892     -0.000000      0.000342
      1.11689      4.33922      3.52495        -0.001356      0.000000      0.002267
     -0.79164      1.37117      5.87421         0.000446     -0.000773      0.000342
     -0.69418      1.20236     10.70982        -0.000678      0.001175      0.002267
 -----------------------------------------------------------------------------------
    total drift:                               -0.000000     -0.000001      0.006189


--------------------------------------------------------------------------------------------------------



  FREE ENERGIE OF THE ION-ELECTRON SYSTEM (eV)
  ---------------------------------------------------
  free  energy   TOTEN  =      -117.60341839 eV

  energy  without entropy=     -117.60341839  energy(sigma->0) =     -117.60341839
 


--------------------------------------------------------------------------------------------------------


    POTLOK:  cpu time      3.4978: real time      3.5872


--------------------------------------------------------------------------------------------------------


     LOOP+:  cpu time    703.9632: real time    735.0598
    4ORBIT:  cpu time      0.0001: real time      0.0000



 total charge

# of ion       s       p       d       tot
------------------------------------------
    1        0.305   6.327   2.756   9.388
    2        0.361   6.453   2.667   9.481
    3        0.361   6.453   2.667   9.481
    4        0.305   6.327   2.756   9.388
    5        1.751   4.280   0.000   6.031
    6        1.751   4.280   0.000   6.031
    7        1.751   4.280   0.000   6.031
    8        1.751   4.280   0.000   6.031
    9        1.742   4.334   0.000   6.076
   10        1.751   4.280   0.000   6.031
   11        1.747   4.305   0.000   6.051
   12        1.751   4.280   0.000   6.031
   13        1.742   4.334   0.000   6.076
   14        1.747   4.305   0.000   6.051
   15        1.742   4.334   0.000   6.076
   16        1.747   4.305   0.000   6.051
   17        1.747   4.305   0.000   6.051
   18        1.742   4.334   0.000   6.076
   19        1.747   4.305   0.000   6.051
   20        1.742   4.334   0.000   6.076
   21        1.747   4.305   0.000   6.051
   22        1.742   4.334   0.000   6.076
--------------------------------------------------
tot         32.768 103.071  10.848 146.687



 magnetization (x)

# of ion       s       p       d       tot
------------------------------------------
    1        0.009   0.005   0.950   0.964
    2        0.001   0.000   0.045   0.046
    3        0.001   0.000   0.045   0.046
    4        0.009   0.005   0.950   0.964
    5        0.000  -0.003   0.000  -0.003
    6        0.000  -0.003   0.000  -0.003
    7        0.000  -0.003   0.000  -0.003
    8        0.000  -0.003   0.000  -0.003
    9        0.000  -0.002   0.000  -0.002
   10        0.000  -0.003   0.000  -0.003
   11        0.000  -0.008   0.000  -0.008
   12        0.000  -0.003   0.000  -0.003
   13        0.000  -0.002   0.000  -0.002
   14        0.000  -0.008   0.000  -0.008
   15        0.000  -0.002   0.000  -0.002
   16        0.000  -0.008   0.000  -0.008
   17        0.000  -0.008   0.000  -0.008
   18        0.000  -0.002   0.000  -0.002
   19        0.000  -0.008   0.000  -0.008
   20        0.000  -0.002   0.000  -0.002
   21        0.000  -0.008   0.000  -0.008
   22        0.000  -0.002   0.000  -0.002
--------------------------------------------------
tot          0.021  -0.067   1.990   1.944
 
 BZINTS: Fermi energy:   -1.003615;  170.000000 electrons
         Band energy:-0.249561E+04;  BLOECHL correction:    0.000000

 total amount of memory used by VASP MPI-rank0    57581. kBytes
=======================================================================

   base      :      30000. kBytes
   nonlr-proj:       3165. kBytes
   fftplans  :       1613. kBytes
   grid      :       4248. kBytes
   one-center:         62. kBytes
   wavefun   :      18493. kBytes
 
  
  
 General timing and accounting informations for this job:
 ========================================================
  
                  Total CPU time used (sec):     2634.128
                            User time (sec):     2606.959
                          System time (sec):       27.169
                         Elapsed time (sec):     2747.543
  
                   Maximum memory used (kb):      268924.
                   Average memory used (kb):          N/A
  
                          Minor page faults:       309915
                          Major page faults:           25
                 Voluntary context switches:         6239
