unknown system                          
           1
     5.010501   -0.000000    0.000000
    -2.505250    4.339221    0.000000
     0.000000   -0.000000   14.369736
   V    F 
     4    18
Direct configuration=     1
   0.00000000  0.00000000  0.35507265
   0.00000000  0.00000000  0.15230674
   0.00000000  0.00000000  0.65230674
   0.00000000  0.00000000  0.85507265
   1.00000000  0.69651453  0.59348629
   0.30348547  0.00000000  0.09348629
   0.00000000  0.30348547  0.09348629
   0.30348547  0.30348547  0.59348629
   0.27709075  0.27709075  0.24530383
   0.69651453  1.00000000  0.59348629
   0.31599367  0.31599367  0.90879042
   0.69651453  0.69651453  0.09348629
   0.27709075  0.00000000  0.74530383
   0.31599367  0.00000000  0.40879042
   0.72290925  0.72290925  0.74530383
   0.68400633  0.68400633  0.40879042
   1.00000000  0.68400633  0.90879042
   1.00000000  0.72290925  0.24530383
   0.68400633  1.00000000  0.90879042
   0.72290925  1.00000000  0.24530383
   0.00000000  0.31599367  0.40879042
   0.00000000  0.27709075  0.74530383
