  52  52   1   0
  0.1389993E+02  0.6573822E-09  0.6703021E-09  0.1643946E-08  0.5000000E-15
  1.000000000000000E-004
  CAR 
 unknown system                          
     11.67549656    -24.04791721  301      1.09243523      1.00000000
    -24.048  0.0000E+00  0.0000E+00
    -23.929  0.0000E+00  0.0000E+00
    -23.810  0.0000E+00  0.0000E+00
    -23.691  0.0000E+00  0.0000E+00
    -23.572  0.0000E+00  0.0000E+00
    -23.453  0.0000E+00  0.0000E+00
    -23.333  0.0000E+00  0.0000E+00
    -23.214  0.0000E+00  0.0000E+00
    -23.095  0.0000E+00  0.0000E+00
    -22.976  0.0000E+00  0.0000E+00
    -22.857  0.0000E+00  0.0000E+00
    -22.738  0.0000E+00  0.0000E+00
    -22.619  0.2274E-07  0.2708E-08
    -22.500  0.6064E-01  0.7221E-02
    -22.381  0.2193E+02  0.2619E+01
    -22.262  0.5161E+02  0.8765E+01
    -22.143  0.5885E+02  0.1577E+02
    -22.024  0.1912E+01  0.1600E+02
    -21.905  0.8974E-05  0.1600E+02
    -21.785  0.0000E+00  0.1600E+02
    -21.666  0.0000E+00  0.1600E+02
    -21.547  0.0000E+00  0.1600E+02
    -21.428  0.0000E+00  0.1600E+02
    -21.309  0.0000E+00  0.1600E+02
    -21.190  0.0000E+00  0.1600E+02
    -21.071  0.0000E+00  0.1600E+02
    -20.952  0.0000E+00  0.1600E+02
    -20.833  0.0000E+00  0.1600E+02
    -20.714  0.0000E+00  0.1600E+02
    -20.595  0.0000E+00  0.1600E+02
    -20.476  0.0000E+00  0.1600E+02
    -20.356  0.0000E+00  0.1600E+02
    -20.237  0.0000E+00  0.1600E+02
    -20.118  0.0000E+00  0.1600E+02
    -19.999  0.0000E+00  0.1600E+02
    -19.880  0.0000E+00  0.1600E+02
    -19.761  0.0000E+00  0.1600E+02
    -19.642  0.0000E+00  0.1600E+02
    -19.523  0.0000E+00  0.1600E+02
    -19.404  0.0000E+00  0.1600E+02
    -19.285  0.0000E+00  0.1600E+02
    -19.166  0.0000E+00  0.1600E+02
    -19.047  0.4892E-09  0.1600E+02
    -18.928  0.9042E-02  0.1600E+02
    -18.808  0.9523E+01  0.1714E+02
    -18.689  0.4300E+02  0.2226E+02
    -18.570  0.6560E+02  0.3007E+02
    -18.451  0.1621E+02  0.3200E+02
    -18.332  0.6563E+00  0.3207E+02
    -18.213  0.6874E+02  0.4026E+02
    -18.094  0.1395E+03  0.5688E+02
    -17.975  0.5880E+02  0.6388E+02
    -17.856  0.1029E+01  0.6400E+02
    -17.737  0.8705E-03  0.6400E+02
    -17.618  0.3419E+01  0.6441E+02
    -17.499  0.3956E+02  0.6912E+02
    -17.380  0.2393E+02  0.7197E+02
    -17.260  0.2686E+00  0.7200E+02
    -17.141  0.6807E-06  0.7200E+02
    -17.022  0.0000E+00  0.7200E+02
    -16.903  0.0000E+00  0.7200E+02
    -16.784  0.0000E+00  0.7200E+02
    -16.665  0.0000E+00  0.7200E+02
    -16.546  0.0000E+00  0.7200E+02
    -16.427  0.0000E+00  0.7200E+02
    -16.308  0.0000E+00  0.7200E+02
    -16.189  0.0000E+00  0.7200E+02
    -16.070  0.0000E+00  0.7200E+02
    -15.951  0.0000E+00  0.7200E+02
    -15.832  0.0000E+00  0.7200E+02
    -15.712  0.0000E+00  0.7200E+02
    -15.593  0.0000E+00  0.7200E+02
    -15.474  0.0000E+00  0.7200E+02
    -15.355  0.0000E+00  0.7200E+02
    -15.236  0.0000E+00  0.7200E+02
    -15.117  0.0000E+00  0.7200E+02
    -14.998  0.0000E+00  0.7200E+02
    -14.879  0.0000E+00  0.7200E+02
    -14.760  0.0000E+00  0.7200E+02
    -14.641  0.0000E+00  0.7200E+02
    -14.522  0.0000E+00  0.7200E+02
    -14.403  0.0000E+00  0.7200E+02
    -14.284  0.0000E+00  0.7200E+02
    -14.164  0.0000E+00  0.7200E+02
    -14.045  0.0000E+00  0.7200E+02
    -13.926  0.0000E+00  0.7200E+02
    -13.807  0.0000E+00  0.7200E+02
    -13.688  0.0000E+00  0.7200E+02
    -13.569  0.0000E+00  0.7200E+02
    -13.450  0.0000E+00  0.7200E+02
    -13.331  0.0000E+00  0.7200E+02
    -13.212  0.0000E+00  0.7200E+02
    -13.093  0.0000E+00  0.7200E+02
    -12.974  0.0000E+00  0.7200E+02
    -12.855  0.0000E+00  0.7200E+02
    -12.736  0.0000E+00  0.7200E+02
    -12.616  0.0000E+00  0.7200E+02
    -12.497  0.0000E+00  0.7200E+02
    -12.378  0.0000E+00  0.7200E+02
    -12.259  0.0000E+00  0.7200E+02
    -12.140  0.0000E+00  0.7200E+02
    -12.021  0.0000E+00  0.7200E+02
    -11.902  0.0000E+00  0.7200E+02
    -11.783  0.0000E+00  0.7200E+02
    -11.664  0.0000E+00  0.7200E+02
    -11.545  0.0000E+00  0.7200E+02
    -11.426  0.0000E+00  0.7200E+02
    -11.307  0.0000E+00  0.7200E+02
    -11.187  0.0000E+00  0.7200E+02
    -11.068  0.0000E+00  0.7200E+02
    -10.949  0.0000E+00  0.7200E+02
    -10.830  0.1850E-12  0.7200E+02
    -10.711  0.1084E-03  0.7200E+02
    -10.592  0.2660E+01  0.7232E+02
    -10.473  0.4172E+02  0.7729E+02
    -10.354  0.2503E+02  0.8027E+02
    -10.235  0.9966E+01  0.8145E+02
    -10.116  0.9985E+01  0.8264E+02
     -9.997  0.3438E+02  0.8674E+02
     -9.878  0.1061E+02  0.8800E+02
     -9.759  0.8725E-02  0.8800E+02
     -9.639  0.3023E-09  0.8800E+02
     -9.520  0.0000E+00  0.8800E+02
     -9.401  0.0000E+00  0.8800E+02
     -9.282  0.0000E+00  0.8800E+02
     -9.163  0.0000E+00  0.8800E+02
     -9.044  0.1882E-09  0.8800E+02
     -8.925  0.4646E-02  0.8800E+02
     -8.806  0.5194E+01  0.8862E+02
     -8.687  0.1962E+02  0.9096E+02
     -8.568  0.1929E+02  0.9325E+02
     -8.449  0.1657E+02  0.9522E+02
     -8.330  0.6442E+01  0.9599E+02
     -8.211  0.6896E-01  0.9600E+02
     -8.091  0.1547E-06  0.9600E+02
     -7.972  0.0000E+00  0.9600E+02
     -7.853  0.0000E+00  0.9600E+02
     -7.734  0.0000E+00  0.9600E+02
     -7.615  0.0000E+00  0.9600E+02
     -7.496  0.0000E+00  0.9600E+02
     -7.377  0.0000E+00  0.9600E+02
     -7.258  0.0000E+00  0.9600E+02
     -7.139  0.3193E-06  0.9600E+02
     -7.020  0.3349E+00  0.9604E+02
     -6.901  0.3640E+02  0.1004E+03
     -6.782  0.3032E+02  0.1040E+03
     -6.663  0.4146E+00  0.1040E+03
     -6.543  0.1241E+02  0.1055E+03
     -6.424  0.1884E+02  0.1078E+03
     -6.305  0.1904E+02  0.1100E+03
     -6.186  0.2524E+02  0.1130E+03
     -6.067  0.1851E+02  0.1152E+03
     -5.948  0.5449E+01  0.1159E+03
     -5.829  0.1418E+02  0.1176E+03
     -5.710  0.9058E+01  0.1186E+03
     -5.591  0.6801E+01  0.1195E+03
     -5.472  0.4595E+01  0.1200E+03
     -5.353  0.2344E+02  0.1228E+03
     -5.234  0.2359E+02  0.1256E+03
     -5.115  0.4686E+02  0.1312E+03
     -4.995  0.5004E+02  0.1371E+03
     -4.876  0.3812E+02  0.1417E+03
     -4.757  0.1942E+02  0.1440E+03
     -4.638  0.1262E+02  0.1455E+03
     -4.519  0.3613E+02  0.1498E+03
     -4.400  0.1602E+02  0.1517E+03
     -4.281  0.2428E+01  0.1520E+03
     -4.162  0.3597E-02  0.1520E+03
     -4.043  0.5022E-09  0.1520E+03
     -3.924  0.1152E-05  0.1520E+03
     -3.805  0.2740E+00  0.1520E+03
     -3.686  0.1086E+02  0.1533E+03
     -3.566  0.1428E+02  0.1550E+03
     -3.447  0.2309E+02  0.1578E+03
     -3.328  0.1941E+02  0.1601E+03
     -3.209  0.1465E+02  0.1618E+03
     -3.090  0.1833E+02  0.1640E+03
     -2.971  0.2607E+02  0.1671E+03
     -2.852  0.2300E+02  0.1699E+03
     -2.733  0.2748E+02  0.1731E+03
     -2.614  0.2209E+02  0.1758E+03
     -2.495  0.3341E+02  0.1797E+03
     -2.376  0.3676E+02  0.1841E+03
     -2.257  0.3300E+02  0.1880E+03
     -2.138  0.4248E+02  0.1931E+03
     -2.018  0.4566E+02  0.1985E+03
     -1.899  0.3266E+02  0.2024E+03
     -1.780  0.4026E+02  0.2072E+03
     -1.661  0.3554E+02  0.2115E+03
     -1.542  0.3706E+02  0.2159E+03
     -1.423  0.4215E+02  0.2209E+03
     -1.304  0.4053E+02  0.2257E+03
     -1.185  0.3290E+02  0.2296E+03
     -1.066  0.5125E+02  0.2357E+03
     -0.947  0.4674E+02  0.2413E+03
     -0.828  0.5040E+02  0.2473E+03
     -0.709  0.5317E+02  0.2536E+03
     -0.590  0.3502E+02  0.2578E+03
     -0.470  0.3825E+02  0.2624E+03
     -0.351  0.2997E+02  0.2659E+03
     -0.232  0.2717E+02  0.2692E+03
     -0.113  0.2166E+02  0.2717E+03
      0.006  0.3329E+02  0.2757E+03
      0.125  0.3281E+02  0.2796E+03
      0.244  0.5299E+02  0.2859E+03
      0.363  0.5357E+02  0.2923E+03
      0.482  0.2786E+02  0.2956E+03
      0.601  0.1809E+02  0.2978E+03
      0.720  0.3882E+02  0.3024E+03
      0.839  0.1334E+02  0.3040E+03
      0.958  0.1063E+00  0.3040E+03
      1.078  0.3372E-06  0.3040E+03
      1.197  0.0000E+00  0.3040E+03
      1.316  0.0000E+00  0.3040E+03
      1.435  0.0000E+00  0.3040E+03
      1.554  0.0000E+00  0.3040E+03
      1.673  0.0000E+00  0.3040E+03
      1.792  0.0000E+00  0.3040E+03
      1.911  0.0000E+00  0.3040E+03
      2.030  0.0000E+00  0.3040E+03
      2.149  0.0000E+00  0.3040E+03
      2.268  0.0000E+00  0.3040E+03
      2.387  0.0000E+00  0.3040E+03
      2.506  0.0000E+00  0.3040E+03
      2.626  0.0000E+00  0.3040E+03
      2.745  0.0000E+00  0.3040E+03
      2.864  0.0000E+00  0.3040E+03
      2.983  0.0000E+00  0.3040E+03
      3.102  0.0000E+00  0.3040E+03
      3.221  0.0000E+00  0.3040E+03
      3.340  0.0000E+00  0.3040E+03
      3.459  0.0000E+00  0.3040E+03
      3.578  0.0000E+00  0.3040E+03
      3.697  0.0000E+00  0.3040E+03
      3.816  0.0000E+00  0.3040E+03
      3.935  0.0000E+00  0.3040E+03
      4.055  0.0000E+00  0.3040E+03
      4.174  0.0000E+00  0.3040E+03
      4.293  0.0000E+00  0.3040E+03
      4.412  0.0000E+00  0.3040E+03
      4.531  0.0000E+00  0.3040E+03
      4.650  0.3260E-15  0.3040E+03
      4.769  0.1216E-05  0.3040E+03
      4.888  0.1454E+00  0.3040E+03
      5.007  0.1051E+02  0.3053E+03
      5.126  0.1716E+02  0.3073E+03
      5.245  0.1818E+02  0.3095E+03
      5.364  0.2293E+02  0.3122E+03
      5.483  0.1411E+02  0.3139E+03
      5.603  0.2307E+02  0.3166E+03
      5.722  0.2889E+02  0.3201E+03
      5.841  0.2373E+02  0.3229E+03
      5.960  0.2053E+02  0.3253E+03
      6.079  0.1556E+02  0.3272E+03
      6.198  0.2868E+02  0.3306E+03
      6.317  0.2009E+02  0.3330E+03
      6.436  0.5709E+01  0.3337E+03
      6.555  0.8523E+01  0.3347E+03
      6.674  0.1037E+02  0.3359E+03
      6.793  0.1488E+02  0.3377E+03
      6.912  0.3151E+02  0.3415E+03
      7.031  0.2049E+02  0.3439E+03
      7.151  0.8429E+00  0.3440E+03
      7.270  0.1265E-03  0.3440E+03
      7.389  0.1325E-11  0.3440E+03
      7.508  0.0000E+00  0.3440E+03
      7.627  0.0000E+00  0.3440E+03
      7.746  0.2869E-15  0.3440E+03
      7.865  0.1350E-05  0.3440E+03
      7.984  0.1993E+00  0.3440E+03
      8.103  0.1095E+02  0.3453E+03
      8.222  0.2170E+02  0.3479E+03
      8.341  0.2317E+02  0.3507E+03
      8.460  0.1087E+02  0.3520E+03
      8.579  0.8758E+00  0.3521E+03
      8.699  0.1268E+01  0.3522E+03
      8.818  0.4911E+01  0.3528E+03
      8.937  0.1009E+02  0.3540E+03
      9.056  0.2144E+02  0.3566E+03
      9.175  0.2265E+02  0.3593E+03
      9.294  0.2366E+02  0.3621E+03
      9.413  0.1767E+02  0.3642E+03
      9.532  0.9397E+01  0.3653E+03
      9.651  0.8164E+01  0.3663E+03
      9.770  0.7138E+01  0.3671E+03
      9.889  0.5400E+01  0.3678E+03
     10.008  0.1677E+01  0.3680E+03
     10.127  0.3109E+00  0.3680E+03
     10.247  0.2402E-02  0.3680E+03
     10.366  0.2187E-08  0.3680E+03
     10.485  0.0000E+00  0.3680E+03
     10.604  0.0000E+00  0.3680E+03
     10.723  0.0000E+00  0.3680E+03
     10.842  0.0000E+00  0.3680E+03
     10.961  0.0000E+00  0.3680E+03
     11.080  0.0000E+00  0.3680E+03
     11.199  0.0000E+00  0.3680E+03
     11.318  0.0000E+00  0.3680E+03
     11.437  0.0000E+00  0.3680E+03
     11.556  0.0000E+00  0.3680E+03
     11.675  0.0000E+00  0.3680E+03
     11.67549656    -24.04791721  301      1.09243523      1.00000000
    -24.048  0.0000E+00  0.0000E+00  0.0000E+00  0.0000E+00  0.0000E+00  0.0000E+00  0.0000E+00  0.0000E+00  0.0000E+00
    -23.929  0.0000E+00  0.0000E+00  0.0000E+00  0.0000E+00  0.0000E+00  0.0000E+00  0.0000E+00  0.0000E+00  0.0000E+00
    -23.810  0.0000E+00  0.0000E+00  0.0000E+00  0.0000E+00  0.0000E+00  0.0000E+00  0.0000E+00  0.0000E+00  0.0000E+00
    -23.691  0.0000E+00  0.0000E+00  0.0000E+00  0.0000E+00  0.0000E+00  0.0000E+00  0.0000E+00  0.0000E+00  0.0000E+00
    -23.572  0.0000E+00  0.0000E+00  0.0000E+00  0.0000E+00  0.0000E+00  0.0000E+00  0.0000E+00  0.0000E+00  0.0000E+00
    -23.453  0.0000E+00  0.0000E+00  0.0000E+00  0.0000E+00  0.0000E+00  0.0000E+00  0.0000E+00  0.0000E+00  0.0000E+00
    -23.333  0.0000E+00  0.0000E+00  0.0000E+00  0.0000E+00  0.0000E+00  0.0000E+00  0.0000E+00  0.0000E+00  0.0000E+00
    -23.214  0.0000E+00  0.0000E+00  0.0000E+00  0.0000E+00  0.0000E+00  0.0000E+00  0.0000E+00  0.0000E+00  0.0000E+00
    -23.095  0.0000E+00  0.0000E+00  0.0000E+00  0.0000E+00  0.0000E+00  0.0000E+00  0.0000E+00  0.0000E+00  0.0000E+00
    -22.976  0.0000E+00  0.0000E+00  0.0000E+00  0.0000E+00  0.0000E+00  0.0000E+00  0.0000E+00  0.0000E+00  0.0000E+00
    -22.857  0.0000E+00  0.0000E+00  0.0000E+00  0.0000E+00  0.0000E+00  0.0000E+00  0.0000E+00  0.0000E+00  0.0000E+00
    -22.738  0.0000E+00  0.0000E+00  0.0000E+00  0.0000E+00  0.0000E+00  0.0000E+00  0.0000E+00  0.0000E+00  0.0000E+00
    -22.619  0.2026E-10  0.3012E-11  0.9201E-12  0.5411E-13  0.2421E-14  0.3302E-15  0.1337E-12  0.3941E-13  0.1751E-12
    -22.500  0.5084E-04  0.8923E-05  0.2284E-05  0.1843E-06  0.1143E-07  0.1427E-08  0.3495E-06  0.1004E-06  0.4746E-06
    -22.381  0.1508E-01  0.3561E-02  0.7767E-03  0.1727E-03  0.6970E-05  0.1682E-05  0.1173E-03  0.2866E-04  0.2252E-03
    -22.262  0.2437E-01  0.7262E-02  0.2101E-02  0.1061E-02  0.1608E-04  0.7891E-05  0.2214E-03  0.1396E-03  0.8121E-03
    -22.143  0.4271E-02  0.1780E-02  0.2724E-02  0.3789E-02  0.8166E-05  0.2600E-05  0.1655E-03  0.8485E-03  0.1794E-02
    -22.024  0.9762E-04  0.6260E-04  0.8393E-04  0.1179E-03  0.2486E-06  0.7622E-07  0.5919E-05  0.2819E-04  0.6090E-04
    -21.905  0.3801E-09  0.3074E-09  0.3947E-09  0.5588E-09  0.1194E-11  0.3007E-12  0.2924E-10  0.1311E-09  0.2843E-09
    -21.785  0.0000E+00  0.0000E+00  0.0000E+00  0.0000E+00  0.0000E+00  0.0000E+00  0.0000E+00  0.0000E+00  0.0000E+00
    -21.666  0.0000E+00  0.0000E+00  0.0000E+00  0.0000E+00  0.0000E+00  0.0000E+00  0.0000E+00  0.0000E+00  0.0000E+00
    -21.547  0.0000E+00  0.0000E+00  0.0000E+00  0.0000E+00  0.0000E+00  0.0000E+00  0.0000E+00  0.0000E+00  0.0000E+00
    -21.428  0.0000E+00  0.0000E+00  0.0000E+00  0.0000E+00  0.0000E+00  0.0000E+00  0.0000E+00  0.0000E+00  0.0000E+00
    -21.309  0.0000E+00  0.0000E+00  0.0000E+00  0.0000E+00  0.0000E+00  0.0000E+00  0.0000E+00  0.0000E+00  0.0000E+00
    -21.190  0.0000E+00  0.0000E+00  0.0000E+00  0.0000E+00  0.0000E+00  0.0000E+00  0.0000E+00  0.0000E+00  0.0000E+00
    -21.071  0.0000E+00  0.0000E+00  0.0000E+00  0.0000E+00  0.0000E+00  0.0000E+00  0.0000E+00  0.0000E+00  0.0000E+00
    -20.952  0.0000E+00  0.0000E+00  0.0000E+00  0.0000E+00  0.0000E+00  0.0000E+00  0.0000E+00  0.0000E+00  0.0000E+00
    -20.833  0.0000E+00  0.0000E+00  0.0000E+00  0.0000E+00  0.0000E+00  0.0000E+00  0.0000E+00  0.0000E+00  0.0000E+00
    -20.714  0.0000E+00  0.0000E+00  0.0000E+00  0.0000E+00  0.0000E+00  0.0000E+00  0.0000E+00  0.0000E+00  0.0000E+00
    -20.595  0.0000E+00  0.0000E+00  0.0000E+00  0.0000E+00  0.0000E+00  0.0000E+00  0.0000E+00  0.0000E+00  0.0000E+00
    -20.476  0.0000E+00  0.0000E+00  0.0000E+00  0.0000E+00  0.0000E+00  0.0000E+00  0.0000E+00  0.0000E+00  0.0000E+00
    -20.356  0.0000E+00  0.0000E+00  0.0000E+00  0.0000E+00  0.0000E+00  0.0000E+00  0.0000E+00  0.0000E+00  0.0000E+00
    -20.237  0.0000E+00  0.0000E+00  0.0000E+00  0.0000E+00  0.0000E+00  0.0000E+00  0.0000E+00  0.0000E+00  0.0000E+00
    -20.118  0.0000E+00  0.0000E+00  0.0000E+00  0.0000E+00  0.0000E+00  0.0000E+00  0.0000E+00  0.0000E+00  0.0000E+00
    -19.999  0.0000E+00  0.0000E+00  0.0000E+00  0.0000E+00  0.0000E+00  0.0000E+00  0.0000E+00  0.0000E+00  0.0000E+00
    -19.880  0.0000E+00  0.0000E+00  0.0000E+00  0.0000E+00  0.0000E+00  0.0000E+00  0.0000E+00  0.0000E+00  0.0000E+00
    -19.761  0.0000E+00  0.0000E+00  0.0000E+00  0.0000E+00  0.0000E+00  0.0000E+00  0.0000E+00  0.0000E+00  0.0000E+00
    -19.642  0.0000E+00  0.0000E+00  0.0000E+00  0.0000E+00  0.0000E+00  0.0000E+00  0.0000E+00  0.0000E+00  0.0000E+00
    -19.523  0.0000E+00  0.0000E+00  0.0000E+00  0.0000E+00  0.0000E+00  0.0000E+00  0.0000E+00  0.0000E+00  0.0000E+00
    -19.404  0.0000E+00  0.0000E+00  0.0000E+00  0.0000E+00  0.0000E+00  0.0000E+00  0.0000E+00  0.0000E+00  0.0000E+00
    -19.285  0.0000E+00  0.0000E+00  0.0000E+00  0.0000E+00  0.0000E+00  0.0000E+00  0.0000E+00  0.0000E+00  0.0000E+00
    -19.166  0.0000E+00  0.0000E+00  0.0000E+00  0.0000E+00  0.0000E+00  0.0000E+00  0.0000E+00  0.0000E+00  0.0000E+00
    -19.047  0.4078E-11  0.9163E-13  0.6214E-12  0.8226E-13  0.2576E-15  0.1538E-14  0.1169E-13  0.3413E-13  0.4183E-16
    -18.928  0.7600E-04  0.1765E-05  0.1146E-04  0.1480E-05  0.4649E-08  0.2870E-07  0.2106E-06  0.6266E-06  0.1232E-08
    -18.808  0.8099E-01  0.2177E-02  0.1199E-01  0.1272E-02  0.4090E-05  0.3104E-04  0.2098E-03  0.6444E-03  0.6182E-05
    -18.689  0.3176E+00  0.1276E-01  0.4920E-01  0.4123E-02  0.1118E-04  0.1258E-03  0.1226E-02  0.2810E-02  0.1622E-03
    -18.570  0.3294E+00  0.4189E-01  0.2735E-01  0.7908E-02  0.3592E-04  0.1288E-03  0.2926E-02  0.2681E-02  0.1765E-02
    -18.451  0.5013E-01  0.1008E-01  0.2635E-02  0.2564E-02  0.1399E-04  0.1863E-04  0.9958E-03  0.7873E-03  0.5904E-03
    -18.332  0.6542E-04  0.9203E-04  0.3754E-04  0.1280E-03  0.1419E-06  0.6478E-07  0.4510E-05  0.1894E-04  0.5263E-04
    -18.213  0.3932E-02  0.1322E-01  0.8372E-02  0.1664E-01  0.4998E-04  0.6729E-05  0.7177E-03  0.2065E-02  0.7639E-02
    -18.094  0.1048E-01  0.3458E-01  0.2118E-01  0.2845E-01  0.1529E-03  0.1754E-04  0.2411E-02  0.4066E-02  0.2076E-01
    -17.975  0.8535E-03  0.1810E-02  0.1446E-02  0.2381E-02  0.5992E-05  0.1232E-04  0.3333E-03  0.7269E-03  0.1408E-02
    -17.856  0.9239E-05  0.8949E-05  0.1091E-04  0.3714E-04  0.4406E-07  0.2254E-06  0.3314E-05  0.1231E-04  0.8323E-05
    -17.737  0.3972E-05  0.1432E-06  0.2106E-05  0.1405E-05  0.6838E-08  0.1271E-07  0.3496E-06  0.6742E-06  0.5537E-07
    -17.618  0.1528E-01  0.5917E-03  0.8394E-02  0.5513E-02  0.2568E-04  0.4992E-04  0.1406E-02  0.2641E-02  0.2411E-03
    -17.499  0.1658E+00  0.6737E-02  0.9766E-01  0.6485E-01  0.2686E-03  0.5664E-03  0.1661E-01  0.3082E-01  0.2806E-02
    -17.380  0.9272E-01  0.4097E-02  0.5906E-01  0.3812E-01  0.1555E-03  0.3384E-03  0.1029E-01  0.1895E-01  0.1676E-02
    -17.260  0.9743E-03  0.4721E-04  0.6644E-03  0.4033E-03  0.1688E-05  0.3745E-05  0.1191E-03  0.2149E-03  0.1980E-04
    -17.141  0.2452E-08  0.1194E-09  0.1684E-08  0.1017E-08  0.4241E-11  0.9459E-11  0.3028E-09  0.5450E-09  0.5064E-10
    -17.022  0.0000E+00  0.0000E+00  0.0000E+00  0.0000E+00  0.0000E+00  0.0000E+00  0.0000E+00  0.0000E+00  0.0000E+00
    -16.903  0.0000E+00  0.0000E+00  0.0000E+00  0.0000E+00  0.0000E+00  0.0000E+00  0.0000E+00  0.0000E+00  0.0000E+00
    -16.784  0.0000E+00  0.0000E+00  0.0000E+00  0.0000E+00  0.0000E+00  0.0000E+00  0.0000E+00  0.0000E+00  0.0000E+00
    -16.665  0.0000E+00  0.0000E+00  0.0000E+00  0.0000E+00  0.0000E+00  0.0000E+00  0.0000E+00  0.0000E+00  0.0000E+00
    -16.546  0.0000E+00  0.0000E+00  0.0000E+00  0.0000E+00  0.0000E+00  0.0000E+00  0.0000E+00  0.0000E+00  0.0000E+00
    -16.427  0.0000E+00  0.0000E+00  0.0000E+00  0.0000E+00  0.0000E+00  0.0000E+00  0.0000E+00  0.0000E+00  0.0000E+00
    -16.308  0.0000E+00  0.0000E+00  0.0000E+00  0.0000E+00  0.0000E+00  0.0000E+00  0.0000E+00  0.0000E+00  0.0000E+00
    -16.189  0.0000E+00  0.0000E+00  0.0000E+00  0.0000E+00  0.0000E+00  0.0000E+00  0.0000E+00  0.0000E+00  0.0000E+00
    -16.070  0.0000E+00  0.0000E+00  0.0000E+00  0.0000E+00  0.0000E+00  0.0000E+00  0.0000E+00  0.0000E+00  0.0000E+00
    -15.951  0.0000E+00  0.0000E+00  0.0000E+00  0.0000E+00  0.0000E+00  0.0000E+00  0.0000E+00  0.0000E+00  0.0000E+00
    -15.832  0.0000E+00  0.0000E+00  0.0000E+00  0.0000E+00  0.0000E+00  0.0000E+00  0.0000E+00  0.0000E+00  0.0000E+00
    -15.712  0.0000E+00  0.0000E+00  0.0000E+00  0.0000E+00  0.0000E+00  0.0000E+00  0.0000E+00  0.0000E+00  0.0000E+00
    -15.593  0.0000E+00  0.0000E+00  0.0000E+00  0.0000E+00  0.0000E+00  0.0000E+00  0.0000E+00  0.0000E+00  0.0000E+00
    -15.474  0.0000E+00  0.0000E+00  0.0000E+00  0.0000E+00  0.0000E+00  0.0000E+00  0.0000E+00  0.0000E+00  0.0000E+00
    -15.355  0.0000E+00  0.0000E+00  0.0000E+00  0.0000E+00  0.0000E+00  0.0000E+00  0.0000E+00  0.0000E+00  0.0000E+00
    -15.236  0.0000E+00  0.0000E+00  0.0000E+00  0.0000E+00  0.0000E+00  0.0000E+00  0.0000E+00  0.0000E+00  0.0000E+00
    -15.117  0.0000E+00  0.0000E+00  0.0000E+00  0.0000E+00  0.0000E+00  0.0000E+00  0.0000E+00  0.0000E+00  0.0000E+00
    -14.998  0.0000E+00  0.0000E+00  0.0000E+00  0.0000E+00  0.0000E+00  0.0000E+00  0.0000E+00  0.0000E+00  0.0000E+00
    -14.879  0.0000E+00  0.0000E+00  0.0000E+00  0.0000E+00  0.0000E+00  0.0000E+00  0.0000E+00  0.0000E+00  0.0000E+00
    -14.760  0.0000E+00  0.0000E+00  0.0000E+00  0.0000E+00  0.0000E+00  0.0000E+00  0.0000E+00  0.0000E+00  0.0000E+00
    -14.641  0.0000E+00  0.0000E+00  0.0000E+00  0.0000E+00  0.0000E+00  0.0000E+00  0.0000E+00  0.0000E+00  0.0000E+00
    -14.522  0.0000E+00  0.0000E+00  0.0000E+00  0.0000E+00  0.0000E+00  0.0000E+00  0.0000E+00  0.0000E+00  0.0000E+00
    -14.403  0.0000E+00  0.0000E+00  0.0000E+00  0.0000E+00  0.0000E+00  0.0000E+00  0.0000E+00  0.0000E+00  0.0000E+00
    -14.284  0.0000E+00  0.0000E+00  0.0000E+00  0.0000E+00  0.0000E+00  0.0000E+00  0.0000E+00  0.0000E+00  0.0000E+00
    -14.164  0.0000E+00  0.0000E+00  0.0000E+00  0.0000E+00  0.0000E+00  0.0000E+00  0.0000E+00  0.0000E+00  0.0000E+00
    -14.045  0.0000E+00  0.0000E+00  0.0000E+00  0.0000E+00  0.0000E+00  0.0000E+00  0.0000E+00  0.0000E+00  0.0000E+00
    -13.926  0.0000E+00  0.0000E+00  0.0000E+00  0.0000E+00  0.0000E+00  0.0000E+00  0.0000E+00  0.0000E+00  0.0000E+00
    -13.807  0.0000E+00  0.0000E+00  0.0000E+00  0.0000E+00  0.0000E+00  0.0000E+00  0.0000E+00  0.0000E+00  0.0000E+00
    -13.688  0.0000E+00  0.0000E+00  0.0000E+00  0.0000E+00  0.0000E+00  0.0000E+00  0.0000E+00  0.0000E+00  0.0000E+00
    -13.569  0.0000E+00  0.0000E+00  0.0000E+00  0.0000E+00  0.0000E+00  0.0000E+00  0.0000E+00  0.0000E+00  0.0000E+00
    -13.450  0.0000E+00  0.0000E+00  0.0000E+00  0.0000E+00  0.0000E+00  0.0000E+00  0.0000E+00  0.0000E+00  0.0000E+00
    -13.331  0.0000E+00  0.0000E+00  0.0000E+00  0.0000E+00  0.0000E+00  0.0000E+00  0.0000E+00  0.0000E+00  0.0000E+00
    -13.212  0.0000E+00  0.0000E+00  0.0000E+00  0.0000E+00  0.0000E+00  0.0000E+00  0.0000E+00  0.0000E+00  0.0000E+00
    -13.093  0.0000E+00  0.0000E+00  0.0000E+00  0.0000E+00  0.0000E+00  0.0000E+00  0.0000E+00  0.0000E+00  0.0000E+00
    -12.974  0.0000E+00  0.0000E+00  0.0000E+00  0.0000E+00  0.0000E+00  0.0000E+00  0.0000E+00  0.0000E+00  0.0000E+00
    -12.855  0.0000E+00  0.0000E+00  0.0000E+00  0.0000E+00  0.0000E+00  0.0000E+00  0.0000E+00  0.0000E+00  0.0000E+00
    -12.736  0.0000E+00  0.0000E+00  0.0000E+00  0.0000E+00  0.0000E+00  0.0000E+00  0.0000E+00  0.0000E+00  0.0000E+00
    -12.616  0.0000E+00  0.0000E+00  0.0000E+00  0.0000E+00  0.0000E+00  0.0000E+00  0.0000E+00  0.0000E+00  0.0000E+00
    -12.497  0.0000E+00  0.0000E+00  0.0000E+00  0.0000E+00  0.0000E+00  0.0000E+00  0.0000E+00  0.0000E+00  0.0000E+00
    -12.378  0.0000E+00  0.0000E+00  0.0000E+00  0.0000E+00  0.0000E+00  0.0000E+00  0.0000E+00  0.0000E+00  0.0000E+00
    -12.259  0.0000E+00  0.0000E+00  0.0000E+00  0.0000E+00  0.0000E+00  0.0000E+00  0.0000E+00  0.0000E+00  0.0000E+00
    -12.140  0.0000E+00  0.0000E+00  0.0000E+00  0.0000E+00  0.0000E+00  0.0000E+00  0.0000E+00  0.0000E+00  0.0000E+00
    -12.021  0.0000E+00  0.0000E+00  0.0000E+00  0.0000E+00  0.0000E+00  0.0000E+00  0.0000E+00  0.0000E+00  0.0000E+00
    -11.902  0.0000E+00  0.0000E+00  0.0000E+00  0.0000E+00  0.0000E+00  0.0000E+00  0.0000E+00  0.0000E+00  0.0000E+00
    -11.783  0.0000E+00  0.0000E+00  0.0000E+00  0.0000E+00  0.0000E+00  0.0000E+00  0.0000E+00  0.0000E+00  0.0000E+00
    -11.664  0.0000E+00  0.0000E+00  0.0000E+00  0.0000E+00  0.0000E+00  0.0000E+00  0.0000E+00  0.0000E+00  0.0000E+00
    -11.545  0.0000E+00  0.0000E+00  0.0000E+00  0.0000E+00  0.0000E+00  0.0000E+00  0.0000E+00  0.0000E+00  0.0000E+00
    -11.426  0.0000E+00  0.0000E+00  0.0000E+00  0.0000E+00  0.0000E+00  0.0000E+00  0.0000E+00  0.0000E+00  0.0000E+00
    -11.307  0.0000E+00  0.0000E+00  0.0000E+00  0.0000E+00  0.0000E+00  0.0000E+00  0.0000E+00  0.0000E+00  0.0000E+00
    -11.187  0.0000E+00  0.0000E+00  0.0000E+00  0.0000E+00  0.0000E+00  0.0000E+00  0.0000E+00  0.0000E+00  0.0000E+00
    -11.068  0.0000E+00  0.0000E+00  0.0000E+00  0.0000E+00  0.0000E+00  0.0000E+00  0.0000E+00  0.0000E+00  0.0000E+00
    -10.949  0.0000E+00  0.0000E+00  0.0000E+00  0.0000E+00  0.0000E+00  0.0000E+00  0.0000E+00  0.0000E+00  0.0000E+00
    -10.830  0.5015E-14  0.1884E-16  0.1837E-15  0.1290E-15  0.1971E-17  0.5873E-17  0.7698E-17  0.3515E-16  0.4233E-17
    -10.711  0.3516E-05  0.1990E-07  0.1011E-06  0.6770E-07  0.9840E-09  0.3539E-08  0.4855E-08  0.1848E-07  0.2070E-08
    -10.592  0.1093E+00  0.7782E-03  0.2304E-02  0.1302E-02  0.1850E-04  0.9170E-04  0.1177E-03  0.3575E-03  0.3594E-04
    -10.473  0.2022E+01  0.1211E-01  0.3918E-01  0.1344E-01  0.2176E-03  0.1568E-02  0.1190E-02  0.3855E-02  0.4293E-03
    -10.354  0.1307E+01  0.7153E-02  0.2635E-01  0.5349E-02  0.9938E-04  0.9319E-03  0.6765E-03  0.1698E-02  0.3602E-03
    -10.235  0.3304E+00  0.1688E-01  0.3193E-02  0.1223E-01  0.5918E-04  0.8886E-04  0.2189E-02  0.2519E-02  0.2779E-03
    -10.116  0.2929E+00  0.1933E-01  0.2246E-02  0.1534E-01  0.7593E-04  0.5499E-04  0.2251E-02  0.2616E-02  0.4233E-03
     -9.997  0.8834E+00  0.6452E-01  0.8315E-02  0.6065E-01  0.3159E-03  0.1677E-03  0.7596E-02  0.9152E-02  0.1990E-02
     -9.878  0.1714E+00  0.1903E-01  0.4174E-02  0.1528E-01  0.1240E-03  0.4020E-04  0.2504E-02  0.3406E-02  0.6130E-03
     -9.759  0.1129E-03  0.1546E-04  0.3852E-05  0.1159E-04  0.1131E-06  0.2715E-07  0.2114E-05  0.2983E-05  0.4924E-06
     -9.639  0.4123E-11  0.5588E-12  0.1260E-12  0.4111E-12  0.4109E-14  0.9153E-15  0.7261E-13  0.1026E-12  0.1636E-13
     -9.520  0.0000E+00  0.0000E+00  0.0000E+00  0.0000E+00  0.0000E+00  0.0000E+00  0.0000E+00  0.0000E+00  0.0000E+00
     -9.401  0.0000E+00  0.0000E+00  0.0000E+00  0.0000E+00  0.0000E+00  0.0000E+00  0.0000E+00  0.0000E+00  0.0000E+00
     -9.282  0.0000E+00  0.0000E+00  0.0000E+00  0.0000E+00  0.0000E+00  0.0000E+00  0.0000E+00  0.0000E+00  0.0000E+00
     -9.163  0.0000E+00  0.0000E+00  0.0000E+00  0.0000E+00  0.0000E+00  0.0000E+00  0.0000E+00  0.0000E+00  0.0000E+00
     -9.044  0.8074E-13  0.5214E-12  0.1228E-12  0.5087E-12  0.7269E-15  0.2465E-14  0.5941E-14  0.1788E-13  0.1003E-12
     -8.925  0.1975E-05  0.1272E-04  0.3070E-05  0.1260E-04  0.1753E-07  0.6040E-07  0.1482E-06  0.4425E-06  0.2486E-05
     -8.806  0.1904E-02  0.1298E-01  0.3739E-02  0.1441E-01  0.1693E-04  0.6217E-04  0.1722E-03  0.5079E-03  0.2848E-02
     -8.687  0.6163E-02  0.5123E-01  0.1439E-01  0.4366E-01  0.7685E-04  0.2440E-03  0.5708E-03  0.2602E-02  0.1257E-01
     -8.568  0.1007E-01  0.5715E-01  0.1572E-01  0.3882E-01  0.9236E-04  0.2686E-03  0.4837E-03  0.3021E-02  0.1457E-01
     -8.449  0.1269E-01  0.4934E-01  0.1980E-01  0.4511E-01  0.7371E-04  0.2214E-03  0.5182E-03  0.2441E-02  0.1388E-01
     -8.330  0.2174E-02  0.1749E-01  0.5668E-02  0.1552E-01  0.2017E-04  0.1053E-03  0.2051E-03  0.1050E-02  0.6422E-02
     -8.211  0.8040E-05  0.1680E-03  0.4772E-04  0.1589E-03  0.1212E-06  0.1273E-05  0.2182E-05  0.1216E-04  0.7487E-04
     -8.091  0.1280E-10  0.3705E-09  0.1056E-09  0.3630E-09  0.2288E-12  0.2958E-11  0.4812E-11  0.2804E-10  0.1696E-09
     -7.972  0.0000E+00  0.0000E+00  0.0000E+00  0.0000E+00  0.0000E+00  0.0000E+00  0.0000E+00  0.0000E+00  0.0000E+00
     -7.853  0.0000E+00  0.0000E+00  0.0000E+00  0.0000E+00  0.0000E+00  0.0000E+00  0.0000E+00  0.0000E+00  0.0000E+00
     -7.734  0.0000E+00  0.0000E+00  0.0000E+00  0.0000E+00  0.0000E+00  0.0000E+00  0.0000E+00  0.0000E+00  0.0000E+00
     -7.615  0.0000E+00  0.0000E+00  0.0000E+00  0.0000E+00  0.0000E+00  0.0000E+00  0.0000E+00  0.0000E+00  0.0000E+00
     -7.496  0.0000E+00  0.0000E+00  0.0000E+00  0.0000E+00  0.0000E+00  0.0000E+00  0.0000E+00  0.0000E+00  0.0000E+00
     -7.377  0.0000E+00  0.0000E+00  0.0000E+00  0.0000E+00  0.0000E+00  0.0000E+00  0.0000E+00  0.0000E+00  0.0000E+00
     -7.258  0.0000E+00  0.0000E+00  0.0000E+00  0.0000E+00  0.0000E+00  0.0000E+00  0.0000E+00  0.0000E+00  0.0000E+00
     -7.139  0.1018E-09  0.1141E-08  0.3778E-09  0.1288E-08  0.2737E-11  0.6931E-11  0.1126E-10  0.4980E-10  0.3173E-09
     -7.020  0.1276E-03  0.1189E-02  0.4367E-03  0.1268E-02  0.3133E-05  0.6147E-05  0.1369E-04  0.4810E-04  0.3191E-03
     -6.901  0.1591E-01  0.1301E+00  0.5095E-01  0.1207E+00  0.3318E-03  0.5393E-03  0.1636E-02  0.4706E-02  0.3323E-01
     -6.782  0.1210E-01  0.1131E+00  0.4267E-01  0.9024E-01  0.2533E-03  0.4318E-03  0.1339E-02  0.3872E-02  0.2850E-01
     -6.663  0.4546E-02  0.1142E-02  0.2876E-03  0.1820E-02  0.6164E-05  0.3648E-05  0.2854E-04  0.7995E-04  0.1484E-03
     -6.543  0.1677E+00  0.3460E-01  0.5986E-02  0.6776E-01  0.2917E-03  0.6020E-04  0.1564E-02  0.3387E-02  0.1101E-02
     -6.424  0.1183E+00  0.6505E-01  0.2336E-01  0.1293E+00  0.5700E-03  0.1519E-03  0.4829E-02  0.9562E-02  0.2453E-02
     -6.305  0.7068E-01  0.5478E-01  0.3210E-01  0.1399E+00  0.5259E-03  0.2569E-03  0.6183E-02  0.1430E-01  0.2245E-02
     -6.186  0.1234E+00  0.5425E-01  0.4451E-01  0.1579E+00  0.4675E-03  0.4972E-03  0.8776E-02  0.2104E-01  0.1978E-02
     -6.067  0.2265E+00  0.3516E-01  0.3078E-01  0.4425E-01  0.2797E-03  0.4019E-03  0.4430E-02  0.8112E-02  0.2027E-02
     -5.948  0.7212E-01  0.1108E-01  0.1106E-01  0.7569E-02  0.7519E-04  0.9646E-04  0.1098E-02  0.1771E-02  0.5524E-03
     -5.829  0.2808E+00  0.2196E-01  0.1335E-01  0.1693E-01  0.2159E-03  0.2200E-03  0.2588E-02  0.3907E-02  0.4790E-03
     -5.710  0.1465E+00  0.1083E-01  0.1355E-01  0.1134E-01  0.1274E-03  0.2294E-03  0.1573E-02  0.2770E-02  0.2749E-03
     -5.591  0.7556E-01  0.6577E-02  0.1464E-01  0.4751E-02  0.6099E-04  0.2630E-03  0.7764E-03  0.1423E-02  0.2598E-03
     -5.472  0.3826E-01  0.4177E-02  0.6949E-02  0.3915E-02  0.2852E-04  0.2336E-03  0.3492E-03  0.5865E-03  0.4606E-03