 running   64 mpi-ranks, on    1 nodes
 distrk:  each k-point on   64 cores,    1 groups
 distr:  one band on    8 cores,    8 groups
 vasp.6.4.0 14Feb23 (build Apr 20 2023 11:28:40) complex                        
  
 POSCAR found type information on POSCAR AsS O 
 POSCAR found :  3 types and      52 ions
 scaLAPACK will be used
 LDA part: xc-table for Pade appr. of Perdew
 WARNING: stress and forces are not correct
 POSCAR, INCAR and KPOINTS ok, starting setup
 FFT: planning ... GRIDC
 FFT: planning ... GRID_SOFT
 FFT: planning ... GRID
 WAVECAR not read
 charge-density read from file: unknown                                 
 entering main loop
       N       E                     dE             d eps       ncg     rms          rms(c)
DAV:   1     0.235734182965E+04    0.23573E+04   -0.17073E+05 52712   0.172E+03
DAV:   2    -0.103055297468E+03   -0.24604E+04   -0.23769E+04 65456   0.355E+02
DAV:   3    -0.304844574471E+03   -0.20179E+03   -0.19870E+03 59816   0.108E+02
DAV:   4    -0.310517583122E+03   -0.56730E+01   -0.56421E+01 66704   0.175E+01
DAV:   5    -0.310670678482E+03   -0.15310E+00   -0.15291E+00 64576   0.276E+00
RMM:   6    -0.310674954758E+03   -0.42763E-02   -0.42763E-02 55615   0.528E-01
RMM:   7    -0.310676801281E+03   -0.18465E-02   -0.18416E-02 75308   0.214E-01
RMM:   8    -0.310676865087E+03   -0.63806E-04   -0.73251E-04 65409   0.617E-02
RMM:   9    -0.310676889998E+03   -0.24912E-04   -0.25047E-04 75627   0.230E-02
RMM:  10    -0.310676890633E+03   -0.63491E-06   -0.89323E-06 50907   0.760E-03
   1 F= -.31803179E+03 E0= -.31803179E+03  d E =-.325035E-19
