  20  20   1   0
  0.1683121E+02  0.7808245E-09  0.7808245E-09  0.7808245E-09  0.5000000E-15
  1.000000000000000E-004
  CAR 
 unknown system                          
     12.15346450    -15.63272948  301      4.56436027      1.00000000
    -15.633  0.0000E+00  0.0000E+00
    -15.540  0.0000E+00  0.0000E+00
    -15.447  0.0000E+00  0.0000E+00
    -15.355  0.0000E+00  0.0000E+00
    -15.262  0.0000E+00  0.0000E+00
    -15.170  0.0000E+00  0.0000E+00
    -15.077  0.0000E+00  0.0000E+00
    -14.984  0.0000E+00  0.0000E+00
    -14.892  0.0000E+00  0.0000E+00
    -14.799  0.0000E+00  0.0000E+00
    -14.707  0.0000E+00  0.0000E+00
    -14.614  0.2775E-11  0.2571E-12
    -14.521  0.1213E-04  0.1124E-05
    -14.429  0.8642E-01  0.8005E-02
    -14.336  0.2541E+01  0.2433E+00
    -14.243  0.3147E+01  0.5348E+00
    -14.151  0.4797E+01  0.9791E+00
    -14.058  0.5662E+01  0.1504E+01
    -13.966  0.9902E+01  0.2421E+01
    -13.873  0.5585E+01  0.2938E+01
    -13.780  0.4627E+01  0.3366E+01
    -13.688  0.1749E+01  0.3528E+01
    -13.595  0.1430E+01  0.3661E+01
    -13.502  0.1921E+01  0.3839E+01
    -13.410  0.2464E+01  0.4067E+01
    -13.317  0.1353E+02  0.5320E+01
    -13.225  0.1502E+02  0.6712E+01
    -13.132  0.1402E+02  0.8010E+01
    -13.039  0.2191E+02  0.1004E+02
    -12.947  0.2513E+02  0.1237E+02
    -12.854  0.1560E+02  0.1381E+02
    -12.761  0.2325E+02  0.1596E+02
    -12.669  0.1178E+02  0.1706E+02
    -12.576  0.1312E+02  0.1827E+02
    -12.484  0.2051E+02  0.2017E+02
    -12.391  0.2318E+02  0.2232E+02
    -12.298  0.1192E+02  0.2342E+02
    -12.206  0.6064E+01  0.2398E+02
    -12.113  0.1827E+00  0.2400E+02
    -12.021  0.2227E-04  0.2400E+02
    -11.928  0.4394E-11  0.2400E+02
    -11.835  0.0000E+00  0.2400E+02
    -11.743  0.0000E+00  0.2400E+02
    -11.650  0.0000E+00  0.2400E+02
    -11.557  0.0000E+00  0.2400E+02
    -11.465  0.0000E+00  0.2400E+02
    -11.372  0.0000E+00  0.2400E+02
    -11.280  0.0000E+00  0.2400E+02
    -11.187  0.0000E+00  0.2400E+02
    -11.094  0.0000E+00  0.2400E+02
    -11.002  0.0000E+00  0.2400E+02
    -10.909  0.0000E+00  0.2400E+02
    -10.816  0.0000E+00  0.2400E+02
    -10.724  0.0000E+00  0.2400E+02
    -10.631  0.0000E+00  0.2400E+02
    -10.539  0.0000E+00  0.2400E+02
    -10.446  0.0000E+00  0.2400E+02
    -10.353  0.0000E+00  0.2400E+02
    -10.261  0.0000E+00  0.2400E+02
    -10.168  0.0000E+00  0.2400E+02
    -10.075  0.0000E+00  0.2400E+02
     -9.983  0.0000E+00  0.2400E+02
     -9.890  0.0000E+00  0.2400E+02
     -9.798  0.0000E+00  0.2400E+02
     -9.705  0.0000E+00  0.2400E+02
     -9.612  0.0000E+00  0.2400E+02
     -9.520  0.0000E+00  0.2400E+02
     -9.427  0.0000E+00  0.2400E+02
     -9.335  0.0000E+00  0.2400E+02
     -9.242  0.0000E+00  0.2400E+02
     -9.149  0.0000E+00  0.2400E+02
     -9.057  0.0000E+00  0.2400E+02
     -8.964  0.0000E+00  0.2400E+02
     -8.871  0.0000E+00  0.2400E+02
     -8.779  0.0000E+00  0.2400E+02
     -8.686  0.0000E+00  0.2400E+02
     -8.594  0.0000E+00  0.2400E+02
     -8.501  0.0000E+00  0.2400E+02
     -8.408  0.0000E+00  0.2400E+02
     -8.316  0.0000E+00  0.2400E+02
     -8.223  0.0000E+00  0.2400E+02
     -8.130  0.0000E+00  0.2400E+02
     -8.038  0.0000E+00  0.2400E+02
     -7.945  0.0000E+00  0.2400E+02
     -7.853  0.0000E+00  0.2400E+02
     -7.760  0.0000E+00  0.2400E+02
     -7.667  0.0000E+00  0.2400E+02
     -7.575  0.0000E+00  0.2400E+02
     -7.482  0.0000E+00  0.2400E+02
     -7.389  0.0000E+00  0.2400E+02
     -7.297  0.0000E+00  0.2400E+02
     -7.204  0.0000E+00  0.2400E+02
     -7.112  0.0000E+00  0.2400E+02
     -7.019  0.0000E+00  0.2400E+02
     -6.926  0.0000E+00  0.2400E+02
     -6.834  0.0000E+00  0.2400E+02
     -6.741  0.0000E+00  0.2400E+02
     -6.649  0.0000E+00  0.2400E+02
     -6.556  0.0000E+00  0.2400E+02
     -6.463  0.0000E+00  0.2400E+02
     -6.371  0.0000E+00  0.2400E+02
     -6.278  0.0000E+00  0.2400E+02
     -6.185  0.0000E+00  0.2400E+02
     -6.093  0.0000E+00  0.2400E+02
     -6.000  0.0000E+00  0.2400E+02
     -5.908  0.0000E+00  0.2400E+02
     -5.815  0.0000E+00  0.2400E+02
     -5.722  0.0000E+00  0.2400E+02
     -5.630  0.0000E+00  0.2400E+02
     -5.537  0.0000E+00  0.2400E+02
     -5.444  0.0000E+00  0.2400E+02
     -5.352  0.0000E+00  0.2400E+02
     -5.259  0.0000E+00  0.2400E+02
     -5.167  0.0000E+00  0.2400E+02
     -5.074  0.0000E+00  0.2400E+02
     -4.981  0.0000E+00  0.2400E+02
     -4.889  0.0000E+00  0.2400E+02
     -4.796  0.2864E-13  0.2400E+02
     -4.703  0.6327E-06  0.2400E+02
     -4.611  0.2080E-01  0.2400E+02
     -4.518  0.2060E+01  0.2419E+02
     -4.426  0.7564E+01  0.2489E+02
     -4.333  0.1524E+02  0.2630E+02
     -4.240  0.1283E+02  0.2749E+02
     -4.148  0.1219E+02  0.2862E+02
     -4.055  0.1430E+02  0.2995E+02
     -3.963  0.1232E+02  0.3109E+02
     -3.870  0.1578E+02  0.3255E+02
     -3.777  0.1710E+02  0.3413E+02
     -3.685  0.1260E+02  0.3530E+02
     -3.592  0.7311E+01  0.3598E+02
     -3.499  0.2327E+00  0.3600E+02
     -3.407  0.3071E-04  0.3600E+02
     -3.314  0.6589E-11  0.3600E+02
     -3.222  0.0000E+00  0.3600E+02
     -3.129  0.0000E+00  0.3600E+02
     -3.036  0.0000E+00  0.3600E+02
     -2.944  0.0000E+00  0.3600E+02
     -2.851  0.0000E+00  0.3600E+02
     -2.758  0.0000E+00  0.3600E+02
     -2.666  0.0000E+00  0.3600E+02
     -2.573  0.0000E+00  0.3600E+02
     -2.481  0.2738E-15  0.3600E+02
     -2.388  0.2085E-07  0.3600E+02
     -2.295  0.2212E-02  0.3600E+02
     -2.203  0.5498E+00  0.3605E+02
     -2.110  0.1784E+01  0.3622E+02
     -2.017  0.1071E+01  0.3632E+02
     -1.925  0.8412E+00  0.3639E+02
     -1.832  0.7590E+00  0.3646E+02
     -1.740  0.7390E+00  0.3653E+02
     -1.647  0.9791E+00  0.3662E+02
     -1.554  0.2569E+01  0.3686E+02
     -1.462  0.1842E+01  0.3703E+02
     -1.369  0.1450E+01  0.3717E+02
     -1.277  0.1534E+01  0.3731E+02
     -1.184  0.2782E+01  0.3757E+02
     -1.091  0.4494E+01  0.3798E+02
     -0.999  0.5891E+01  0.3853E+02
     -0.906  0.4503E+01  0.3894E+02
     -0.813  0.2684E+01  0.3919E+02
     -0.721  0.3524E+01  0.3952E+02
     -0.628  0.2589E+02  0.4192E+02
     -0.536  0.2513E+02  0.4425E+02
     -0.443  0.4650E+01  0.4468E+02
     -0.350  0.6361E+01  0.4527E+02
     -0.258  0.2011E+02  0.4713E+02
     -0.165  0.8416E+01  0.4791E+02
     -0.072  0.1642E+02  0.4943E+02
      0.020  0.2146E+02  0.5142E+02
      0.113  0.7072E+01  0.5207E+02
      0.205  0.8070E+01  0.5282E+02
      0.298  0.8423E+01  0.5360E+02
      0.391  0.8136E+01  0.5435E+02
      0.483  0.7792E+01  0.5507E+02
      0.576  0.6337E+01  0.5566E+02
      0.669  0.1354E+02  0.5691E+02
      0.761  0.1500E+02  0.5830E+02
      0.854  0.1913E+02  0.6008E+02
      0.946  0.9731E+01  0.6098E+02
      1.039  0.5003E+01  0.6144E+02
      1.132  0.9511E+01  0.6232E+02
      1.224  0.1298E+02  0.6352E+02
      1.317  0.7331E+01  0.6420E+02
      1.409  0.1233E+02  0.6534E+02
      1.502  0.1216E+02  0.6647E+02
      1.595  0.4935E+01  0.6693E+02
      1.687  0.4501E+01  0.6734E+02
      1.780  0.1416E+02  0.6866E+02
      1.873  0.1574E+02  0.7011E+02
      1.965  0.1062E+02  0.7110E+02
      2.058  0.5531E+01  0.7161E+02
      2.150  0.5702E+01  0.7214E+02
      2.243  0.5634E+01  0.7266E+02
      2.336  0.1338E+02  0.7390E+02
      2.428  0.1874E+02  0.7563E+02
      2.521  0.2248E+02  0.7772E+02
      2.614  0.2480E+02  0.8001E+02
      2.706  0.2025E+02  0.8189E+02
      2.799  0.1783E+02  0.8354E+02
      2.891  0.1643E+02  0.8506E+02
      2.984  0.1607E+02  0.8655E+02
      3.077  0.7084E+01  0.8721E+02
      3.169  0.8020E+01  0.8795E+02
      3.262  0.8493E+01  0.8874E+02
      3.355  0.1950E+02  0.9054E+02
      3.447  0.1402E+02  0.9184E+02
      3.540  0.2032E+02  0.9372E+02
      3.632  0.3010E+02  0.9651E+02
      3.725  0.2494E+02  0.9882E+02
      3.818  0.3493E+02  0.1021E+03
      3.910  0.2110E+02  0.1040E+03
      4.003  0.1722E+02  0.1056E+03
      4.095  0.3250E+02  0.1086E+03
      4.188  0.1570E+02  0.1101E+03
      4.281  0.1739E+02  0.1117E+03
      4.373  0.3431E+01  0.1120E+03
      4.466  0.6583E-02  0.1120E+03
      4.559  0.2683E-07  0.1120E+03
      4.651  0.0000E+00  0.1120E+03
      4.744  0.0000E+00  0.1120E+03
      4.836  0.0000E+00  0.1120E+03
      4.929  0.0000E+00  0.1120E+03
      5.022  0.0000E+00  0.1120E+03
      5.114  0.0000E+00  0.1120E+03
      5.207  0.0000E+00  0.1120E+03
      5.300  0.0000E+00  0.1120E+03
      5.392  0.0000E+00  0.1120E+03
      5.485  0.0000E+00  0.1120E+03
      5.577  0.0000E+00  0.1120E+03
      5.670  0.0000E+00  0.1120E+03
      5.763  0.0000E+00  0.1120E+03
      5.855  0.0000E+00  0.1120E+03
      5.948  0.0000E+00  0.1120E+03
      6.041  0.0000E+00  0.1120E+03
      6.133  0.0000E+00  0.1120E+03
      6.226  0.0000E+00  0.1120E+03
      6.318  0.0000E+00  0.1120E+03
      6.411  0.0000E+00  0.1120E+03
      6.504  0.0000E+00  0.1120E+03
      6.596  0.0000E+00  0.1120E+03
      6.689  0.0000E+00  0.1120E+03
      6.781  0.0000E+00  0.1120E+03
      6.874  0.0000E+00  0.1120E+03
      6.967  0.7348E-12  0.1120E+03
      7.059  0.5851E-05  0.1120E+03
      7.152  0.7214E-01  0.1120E+03
      7.245  0.3109E+01  0.1123E+03
      7.337  0.4037E+01  0.1127E+03
      7.430  0.2447E+01  0.1129E+03
      7.522  0.2027E+01  0.1131E+03
      7.615  0.1858E+01  0.1133E+03
      7.708  0.1853E+01  0.1134E+03
      7.800  0.2811E+01  0.1137E+03
      7.893  0.2834E+01  0.1139E+03
      7.986  0.5900E+01  0.1145E+03
      8.078  0.1114E+02  0.1155E+03
      8.171  0.1018E+02  0.1165E+03
      8.263  0.9880E+01  0.1174E+03
      8.356  0.6457E+01  0.1180E+03
      8.449  0.7328E+01  0.1187E+03
      8.541  0.7793E+01  0.1194E+03
      8.634  0.1288E+02  0.1206E+03
      8.727  0.1062E+02  0.1216E+03
      8.819  0.1094E+02  0.1226E+03
      8.912  0.5736E+01  0.1231E+03
      9.004  0.5860E+01  0.1236E+03
      9.097  0.7942E+01  0.1244E+03
      9.190  0.9881E+01  0.1253E+03
      9.282  0.9145E+01  0.1261E+03
      9.375  0.9244E+01  0.1270E+03
      9.467  0.1027E+02  0.1280E+03
      9.560  0.6445E+01  0.1286E+03
      9.653  0.8086E+01  0.1293E+03
      9.745  0.9241E+01  0.1302E+03
      9.838  0.1301E+02  0.1314E+03
      9.931  0.1046E+02  0.1323E+03
     10.023  0.1050E+02  0.1333E+03
     10.116  0.8214E+01  0.1341E+03
     10.208  0.7396E+01  0.1347E+03
     10.301  0.5869E+01  0.1353E+03
     10.394  0.3334E+01  0.1356E+03
     10.486  0.1857E+01  0.1358E+03
     10.579  0.1210E+01  0.1359E+03
     10.672  0.4200E+00  0.1359E+03
     10.764  0.2149E+00  0.1359E+03
     10.857  0.4012E+00  0.1360E+03
     10.949  0.2006E+00  0.1360E+03
     11.042  0.6754E-02  0.1360E+03
     11.135  0.1212E-05  0.1360E+03
     11.227  0.3311E-12  0.1360E+03
     11.320  0.0000E+00  0.1360E+03
     11.412  0.0000E+00  0.1360E+03
     11.505  0.0000E+00  0.1360E+03
     11.598  0.0000E+00  0.1360E+03
     11.690  0.0000E+00  0.1360E+03
     11.783  0.0000E+00  0.1360E+03
     11.876  0.0000E+00  0.1360E+03
     11.968  0.0000E+00  0.1360E+03
     12.061  0.0000E+00  0.1360E+03
     12.153  0.0000E+00  0.1360E+03
     12.15346450    -15.63272948  301      4.56436027      1.00000000
    -15.633  0.0000E+00  0.0000E+00  0.0000E+00  0.0000E+00  0.0000E+00  0.0000E+00  0.0000E+00  0.0000E+00  0.0000E+00
    -15.540  0.0000E+00  0.0000E+00  0.0000E+00  0.0000E+00  0.0000E+00  0.0000E+00  0.0000E+00  0.0000E+00  0.0000E+00
    -15.447  0.0000E+00  0.0000E+00  0.0000E+00  0.0000E+00  0.0000E+00  0.0000E+00  0.0000E+00  0.0000E+00  0.0000E+00
    -15.355  0.0000E+00  0.0000E+00  0.0000E+00  0.0000E+00  0.0000E+00  0.0000E+00  0.0000E+00  0.0000E+00  0.0000E+00
    -15.262  0.0000E+00  0.0000E+00  0.0000E+00  0.0000E+00  0.0000E+00  0.0000E+00  0.0000E+00  0.0000E+00  0.0000E+00
    -15.170  0.0000E+00  0.0000E+00  0.0000E+00  0.0000E+00  0.0000E+00  0.0000E+00  0.0000E+00  0.0000E+00  0.0000E+00
    -15.077  0.0000E+00  0.0000E+00  0.0000E+00  0.0000E+00  0.0000E+00  0.0000E+00  0.0000E+00  0.0000E+00  0.0000E+00
    -14.984  0.0000E+00  0.0000E+00  0.0000E+00  0.0000E+00  0.0000E+00  0.0000E+00  0.0000E+00  0.0000E+00  0.0000E+00
    -14.892  0.0000E+00  0.0000E+00  0.0000E+00  0.0000E+00  0.0000E+00  0.0000E+00  0.0000E+00  0.0000E+00  0.0000E+00
    -14.799  0.0000E+00  0.0000E+00  0.0000E+00  0.0000E+00  0.0000E+00  0.0000E+00  0.0000E+00  0.0000E+00  0.0000E+00
    -14.707  0.0000E+00  0.0000E+00  0.0000E+00  0.0000E+00  0.0000E+00  0.0000E+00  0.0000E+00  0.0000E+00  0.0000E+00
    -14.614  0.3427E-13  0.1120E-14  0.7913E-15  0.3419E-14  0.8313E-17  0.5491E-17  0.7662E-17  0.5433E-17  0.9543E-17
    -14.521  0.1497E-06  0.4903E-08  0.3466E-08  0.1496E-07  0.3642E-10  0.2400E-10  0.3348E-10  0.2395E-10  0.4178E-10
    -14.429  0.1065E-02  0.3507E-04  0.2484E-04  0.1067E-03  0.2610E-06  0.1710E-06  0.2382E-06  0.1745E-06  0.2989E-06
    -14.336  0.3120E-01  0.1047E-02  0.7456E-03  0.3158E-02  0.7842E-05  0.5035E-05  0.6970E-05  0.5536E-05  0.8915E-05
    -14.243  0.3792E-01  0.1387E-02  0.1006E-02  0.4053E-02  0.1051E-04  0.6339E-05  0.8400E-05  0.8800E-05  0.1149E-04
    -14.151  0.5570E-01  0.2334E-02  0.1714E-02  0.6679E-02  0.1691E-04  0.1021E-04  0.1179E-04  0.1555E-04  0.1668E-04
    -14.058  0.6370E-01  0.3023E-02  0.2291E-02  0.8147E-02  0.2359E-04  0.1359E-04  0.1599E-04  0.2518E-04  0.2410E-04
    -13.966  0.1080E+00  0.5858E-02  0.4661E-02  0.1424E-01  0.4965E-04  0.2592E-04  0.3271E-04  0.6334E-04  0.5440E-04
    -13.873  0.5925E-01  0.3614E-02  0.3006E-02  0.7872E-02  0.3840E-04  0.1367E-04  0.2073E-04  0.5469E-04  0.4378E-04
    -13.780  0.4722E-01  0.3286E-02  0.2855E-02  0.6307E-02  0.5112E-04  0.1340E-04  0.2310E-04  0.8026E-04  0.5898E-04
    -13.688  0.1749E-01  0.1251E-02  0.1067E-02  0.2537E-02  0.1743E-04  0.5195E-05  0.8111E-05  0.2761E-04  0.1986E-04
    -13.595  0.1403E-01  0.1005E-02  0.8274E-03  0.2252E-02  0.1084E-04  0.3682E-05  0.5161E-05  0.1741E-04  0.1212E-04
    -13.502  0.1887E-01  0.1264E-02  0.9757E-03  0.3282E-02  0.7521E-05  0.2697E-05  0.3560E-05  0.1235E-04  0.8309E-05
    -13.410  0.2141E-01  0.1929E-02  0.1690E-02  0.3607E-02  0.6832E-04  0.3844E-04  0.4791E-04  0.1062E-03  0.8001E-04
    -13.317  0.8103E-01  0.1505E-01  0.1553E-01  0.1173E-01  0.1104E-02  0.7006E-03  0.8625E-03  0.1704E-02  0.1323E-02
    -13.225  0.8598E-01  0.1655E-01  0.1682E-01  0.1466E-01  0.1171E-02  0.8873E-03  0.1055E-02  0.1834E-02  0.1444E-02
    -13.132  0.7733E-01  0.1508E-01  0.1521E-01  0.1421E-01  0.1151E-02  0.8601E-03  0.1025E-02  0.1766E-02  0.1409E-02
    -13.039  0.1180E+00  0.2190E-01  0.2183E-01  0.2241E-01  0.1885E-02  0.1550E-02  0.1826E-02  0.3050E-02  0.2388E-02
    -12.947  0.1227E+00  0.2571E-01  0.2556E-01  0.2681E-01  0.2249E-02  0.1839E-02  0.2216E-02  0.3671E-02  0.2912E-02
    -12.854  0.6859E-01  0.1644E-01  0.1649E-01  0.1604E-01  0.1542E-02  0.1175E-02  0.1426E-02  0.2436E-02  0.1946E-02
    -12.761  0.7149E-01  0.2923E-01  0.3031E-01  0.2166E-01  0.2592E-02  0.1801E-02  0.2159E-02  0.4016E-02  0.3127E-02
    -12.669  0.2294E-01  0.1698E-01  0.1799E-01  0.9879E-02  0.1405E-02  0.9697E-03  0.1143E-02  0.2179E-02  0.1668E-02
    -12.576  0.5224E-02  0.2060E-01  0.2228E-01  0.8852E-02  0.1777E-02  0.1471E-02  0.1672E-02  0.2852E-02  0.2176E-02
    -12.484  0.5441E-02  0.3006E-01  0.3230E-01  0.1441E-01  0.3039E-02  0.2369E-02  0.2802E-02  0.4766E-02  0.3766E-02
    -12.391  0.4490E-02  0.3117E-01  0.3314E-01  0.1740E-01  0.3609E-02  0.2827E-02  0.3398E-02  0.5794E-02  0.4576E-02
    -12.298  0.5205E-03  0.1473E-01  0.1571E-01  0.7879E-02  0.2032E-02  0.1635E-02  0.1963E-02  0.3281E-02  0.2599E-02
    -12.206  0.6180E-04  0.7023E-02  0.7565E-02  0.3232E-02  0.1094E-02  0.9309E-03  0.1090E-02  0.1774E-02  0.1394E-02
    -12.113  0.6781E-06  0.2090E-03  0.2254E-03  0.9403E-04  0.3333E-04  0.2851E-04  0.3328E-04  0.5400E-04  0.4242E-04
    -12.021  0.4264E-10  0.2538E-07  0.2738E-07  0.1136E-07  0.4075E-08  0.3486E-08  0.4068E-08  0.6596E-08  0.5183E-08
    -11.928  0.5406E-17  0.5002E-14  0.5397E-14  0.2235E-14  0.8052E-15  0.6889E-15  0.8038E-15  0.1303E-14  0.1024E-14
    -11.835  0.0000E+00  0.0000E+00  0.0000E+00  0.0000E+00  0.0000E+00  0.0000E+00  0.0000E+00  0.0000E+00  0.0000E+00
    -11.743  0.0000E+00  0.0000E+00  0.0000E+00  0.0000E+00  0.0000E+00  0.0000E+00  0.0000E+00  0.0000E+00  0.0000E+00
    -11.650  0.0000E+00  0.0000E+00  0.0000E+00  0.0000E+00  0.0000E+00  0.0000E+00  0.0000E+00  0.0000E+00  0.0000E+00
    -11.557  0.0000E+00  0.0000E+00  0.0000E+00  0.0000E+00  0.0000E+00  0.0000E+00  0.0000E+00  0.0000E+00  0.0000E+00
    -11.465  0.0000E+00  0.0000E+00  0.0000E+00  0.0000E+00  0.0000E+00  0.0000E+00  0.0000E+00  0.0000E+00  0.0000E+00
    -11.372  0.0000E+00  0.0000E+00  0.0000E+00  0.0000E+00  0.0000E+00  0.0000E+00  0.0000E+00  0.0000E+00  0.0000E+00
    -11.280  0.0000E+00  0.0000E+00  0.0000E+00  0.0000E+00  0.0000E+00  0.0000E+00  0.0000E+00  0.0000E+00  0.0000E+00
    -11.187  0.0000E+00  0.0000E+00  0.0000E+00  0.0000E+00  0.0000E+00  0.0000E+00  0.0000E+00  0.0000E+00  0.0000E+00
    -11.094  0.0000E+00  0.0000E+00  0.0000E+00  0.0000E+00  0.0000E+00  0.0000E+00  0.0000E+00  0.0000E+00  0.0000E+00
    -11.002  0.0000E+00  0.0000E+00  0.0000E+00  0.0000E+00  0.0000E+00  0.0000E+00  0.0000E+00  0.0000E+00  0.0000E+00
    -10.909  0.0000E+00  0.0000E+00  0.0000E+00  0.0000E+00  0.0000E+00  0.0000E+00  0.0000E+00  0.0000E+00  0.0000E+00
    -10.816  0.0000E+00  0.0000E+00  0.0000E+00  0.0000E+00  0.0000E+00  0.0000E+00  0.0000E+00  0.0000E+00  0.0000E+00
    -10.724  0.0000E+00  0.0000E+00  0.0000E+00  0.0000E+00  0.0000E+00  0.0000E+00  0.0000E+00  0.0000E+00  0.0000E+00
    -10.631  0.0000E+00  0.0000E+00  0.0000E+00  0.0000E+00  0.0000E+00  0.0000E+00  0.0000E+00  0.0000E+00  0.0000E+00
    -10.539  0.0000E+00  0.0000E+00  0.0000E+00  0.0000E+00  0.0000E+00  0.0000E+00  0.0000E+00  0.0000E+00  0.0000E+00
    -10.446  0.0000E+00  0.0000E+00  0.0000E+00  0.0000E+00  0.0000E+00  0.0000E+00  0.0000E+00  0.0000E+00  0.0000E+00
    -10.353  0.0000E+00  0.0000E+00  0.0000E+00  0.0000E+00  0.0000E+00  0.0000E+00  0.0000E+00  0.0000E+00  0.0000E+00
    -10.261  0.0000E+00  0.0000E+00  0.0000E+00  0.0000E+00  0.0000E+00  0.0000E+00  0.0000E+00  0.0000E+00  0.0000E+00
    -10.168  0.0000E+00  0.0000E+00  0.0000E+00  0.0000E+00  0.0000E+00  0.0000E+00  0.0000E+00  0.0000E+00  0.0000E+00
    -10.075  0.0000E+00  0.0000E+00  0.0000E+00  0.0000E+00  0.0000E+00  0.0000E+00  0.0000E+00  0.0000E+00  0.0000E+00
     -9.983  0.0000E+00  0.0000E+00  0.0000E+00  0.0000E+00  0.0000E+00  0.0000E+00  0.0000E+00  0.0000E+00  0.0000E+00
     -9.890  0.0000E+00  0.0000E+00  0.0000E+00  0.0000E+00  0.0000E+00  0.0000E+00  0.0000E+00  0.0000E+00  0.0000E+00
     -9.798  0.0000E+00  0.0000E+00  0.0000E+00  0.0000E+00  0.0000E+00  0.0000E+00  0.0000E+00  0.0000E+00  0.0000E+00
     -9.705  0.0000E+00  0.0000E+00  0.0000E+00  0.0000E+00  0.0000E+00  0.0000E+00  0.0000E+00  0.0000E+00  0.0000E+00
     -9.612  0.0000E+00  0.0000E+00  0.0000E+00  0.0000E+00  0.0000E+00  0.0000E+00  0.0000E+00  0.0000E+00  0.0000E+00
     -9.520  0.0000E+00  0.0000E+00  0.0000E+00  0.0000E+00  0.0000E+00  0.0000E+00  0.0000E+00  0.0000E+00  0.0000E+00
     -9.427  0.0000E+00  0.0000E+00  0.0000E+00  0.0000E+00  0.0000E+00  0.0000E+00  0.0000E+00  0.0000E+00  0.0000E+00
     -9.335  0.0000E+00  0.0000E+00  0.0000E+00  0.0000E+00  0.0000E+00  0.0000E+00  0.0000E+00  0.0000E+00  0.0000E+00
     -9.242  0.0000E+00  0.0000E+00  0.0000E+00  0.0000E+00  0.0000E+00  0.0000E+00  0.0000E+00  0.0000E+00  0.0000E+00
     -9.149  0.0000E+00  0.0000E+00  0.0000E+00  0.0000E+00  0.0000E+00  0.0000E+00  0.0000E+00  0.0000E+00  0.0000E+00
     -9.057  0.0000E+00  0.0000E+00  0.0000E+00  0.0000E+00  0.0000E+00  0.0000E+00  0.0000E+00  0.0000E+00  0.0000E+00
     -8.964  0.0000E+00  0.0000E+00  0.0000E+00  0.0000E+00  0.0000E+00  0.0000E+00  0.0000E+00  0.0000E+00  0.0000E+00
     -8.871  0.0000E+00  0.0000E+00  0.0000E+00  0.0000E+00  0.0000E+00  0.0000E+00  0.0000E+00  0.0000E+00  0.0000E+00
     -8.779  0.0000E+00  0.0000E+00  0.0000E+00  0.0000E+00  0.0000E+00  0.0000E+00  0.0000E+00  0.0000E+00  0.0000E+00
     -8.686  0.0000E+00  0.0000E+00  0.0000E+00  0.0000E+00  0.0000E+00  0.0000E+00  0.0000E+00  0.0000E+00  0.0000E+00
     -8.594  0.0000E+00  0.0000E+00  0.0000E+00  0.0000E+00  0.0000E+00  0.0000E+00  0.0000E+00  0.0000E+00  0.0000E+00
     -8.501  0.0000E+00  0.0000E+00  0.0000E+00  0.0000E+00  0.0000E+00  0.0000E+00  0.0000E+00  0.0000E+00  0.0000E+00
     -8.408  0.0000E+00  0.0000E+00  0.0000E+00  0.0000E+00  0.0000E+00  0.0000E+00  0.0000E+00  0.0000E+00  0.0000E+00
     -8.316  0.0000E+00  0.0000E+00  0.0000E+00  0.0000E+00  0.0000E+00  0.0000E+00  0.0000E+00  0.0000E+00  0.0000E+00
     -8.223  0.0000E+00  0.0000E+00  0.0000E+00  0.0000E+00  0.0000E+00  0.0000E+00  0.0000E+00  0.0000E+00  0.0000E+00
     -8.130  0.0000E+00  0.0000E+00  0.0000E+00  0.0000E+00  0.0000E+00  0.0000E+00  0.0000E+00  0.0000E+00  0.0000E+00
     -8.038  0.0000E+00  0.0000E+00  0.0000E+00  0.0000E+00  0.0000E+00  0.0000E+00  0.0000E+00  0.0000E+00  0.0000E+00
     -7.945  0.0000E+00  0.0000E+00  0.0000E+00  0.0000E+00  0.0000E+00  0.0000E+00  0.0000E+00  0.0000E+00  0.0000E+00
     -7.853  0.0000E+00  0.0000E+00  0.0000E+00  0.0000E+00  0.0000E+00  0.0000E+00  0.0000E+00  0.0000E+00  0.0000E+00
     -7.760  0.0000E+00  0.0000E+00  0.0000E+00  0.0000E+00  0.0000E+00  0.0000E+00  0.0000E+00  0.0000E+00  0.0000E+00
     -7.667  0.0000E+00  0.0000E+00  0.0000E+00  0.0000E+00  0.0000E+00  0.0000E+00  0.0000E+00  0.0000E+00  0.0000E+00
     -7.575  0.0000E+00  0.0000E+00  0.0000E+00  0.0000E+00  0.0000E+00  0.0000E+00  0.0000E+00  0.0000E+00  0.0000E+00
     -7.482  0.0000E+00  0.0000E+00  0.0000E+00  0.0000E+00  0.0000E+00  0.0000E+00  0.0000E+00  0.0000E+00  0.0000E+00
     -7.389  0.0000E+00  0.0000E+00  0.0000E+00  0.0000E+00  0.0000E+00  0.0000E+00  0.0000E+00  0.0000E+00  0.0000E+00
     -7.297  0.0000E+00  0.0000E+00  0.0000E+00  0.0000E+00  0.0000E+00  0.0000E+00  0.0000E+00  0.0000E+00  0.0000E+00
     -7.204  0.0000E+00  0.0000E+00  0.0000E+00  0.0000E+00  0.0000E+00  0.0000E+00  0.0000E+00  0.0000E+00  0.0000E+00
     -7.112  0.0000E+00  0.0000E+00  0.0000E+00  0.0000E+00  0.0000E+00  0.0000E+00  0.0000E+00  0.0000E+00  0.0000E+00
     -7.019  0.0000E+00  0.0000E+00  0.0000E+00  0.0000E+00  0.0000E+00  0.0000E+00  0.0000E+00  0.0000E+00  0.0000E+00
     -6.926  0.0000E+00  0.0000E+00  0.0000E+00  0.0000E+00  0.0000E+00  0.0000E+00  0.0000E+00  0.0000E+00  0.0000E+00
     -6.834  0.0000E+00  0.0000E+00  0.0000E+00  0.0000E+00  0.0000E+00  0.0000E+00  0.0000E+00  0.0000E+00  0.0000E+00
     -6.741  0.0000E+00  0.0000E+00  0.0000E+00  0.0000E+00  0.0000E+00  0.0000E+00  0.0000E+00  0.0000E+00  0.0000E+00
     -6.649  0.0000E+00  0.0000E+00  0.0000E+00  0.0000E+00  0.0000E+00  0.0000E+00  0.0000E+00  0.0000E+00  0.0000E+00
     -6.556  0.0000E+00  0.0000E+00  0.0000E+00  0.0000E+00  0.0000E+00  0.0000E+00  0.0000E+00  0.0000E+00  0.0000E+00
     -6.463  0.0000E+00  0.0000E+00  0.0000E+00  0.0000E+00  0.0000E+00  0.0000E+00  0.0000E+00  0.0000E+00  0.0000E+00
     -6.371  0.0000E+00  0.0000E+00  0.0000E+00  0.0000E+00  0.0000E+00  0.0000E+00  0.0000E+00  0.0000E+00  0.0000E+00
     -6.278  0.0000E+00  0.0000E+00  0.0000E+00  0.0000E+00  0.0000E+00  0.0000E+00  0.0000E+00  0.0000E+00  0.0000E+00
     -6.185  0.0000E+00  0.0000E+00  0.0000E+00  0.0000E+00  0.0000E+00  0.0000E+00  0.0000E+00  0.0000E+00  0.0000E+00
     -6.093  0.0000E+00  0.0000E+00  0.0000E+00  0.0000E+00  0.0000E+00  0.0000E+00  0.0000E+00  0.0000E+00  0.0000E+00
     -6.000  0.0000E+00  0.0000E+00  0.0000E+00  0.0000E+00  0.0000E+00  0.0000E+00  0.0000E+00  0.0000E+00  0.0000E+00
     -5.908  0.0000E+00  0.0000E+00  0.0000E+00  0.0000E+00  0.0000E+00  0.0000E+00  0.0000E+00  0.0000E+00  0.0000E+00
     -5.815  0.0000E+00  0.0000E+00  0.0000E+00  0.0000E+00  0.0000E+00  0.0000E+00  0.0000E+00  0.0000E+00  0.0000E+00
     -5.722  0.0000E+00  0.0000E+00  0.0000E+00  0.0000E+00  0.0000E+00  0.0000E+00  0.0000E+00  0.0000E+00  0.0000E+00
     -5.630  0.0000E+00  0.0000E+00  0.0000E+00  0.0000E+00  0.0000E+00  0.0000E+00  0.0000E+00  0.0000E+00  0.0000E+00
     -5.537  0.0000E+00  0.0000E+00  0.0000E+00  0.0000E+00  0.0000E+00  0.0000E+00  0.0000E+00  0.0000E+00  0.0000E+00
     -5.444  0.0000E+00  0.0000E+00  0.0000E+00  0.0000E+00  0.0000E+00  0.0000E+00  0.0000E+00  0.0000E+00  0.0000E+00
     -5.352  0.0000E+00  0.0000E+00  0.0000E+00  0.0000E+00  0.0000E+00  0.0000E+00  0.0000E+00  0.0000E+00  0.0000E+00
     -5.259  0.0000E+00  0.0000E+00  0.0000E+00  0.0000E+00  0.0000E+00  0.0000E+00  0.0000E+00  0.0000E+00  0.0000E+00
     -5.167  0.0000E+00  0.0000E+00  0.0000E+00  0.0000E+00  0.0000E+00  0.0000E+00  0.0000E+00  0.0000E+00  0.0000E+00
     -5.074  0.0000E+00  0.0000E+00  0.0000E+00  0.0000E+00  0.0000E+00  0.0000E+00  0.0000E+00  0.0000E+00  0.0000E+00
     -4.981  0.0000E+00  0.0000E+00  0.0000E+00  0.0000E+00  0.0000E+00  0.0000E+00  0.0000E+00  0.0000E+00  0.0000E+00
     -4.889  0.0000E+00  0.0000E+00  0.0000E+00  0.0000E+00  0.0000E+00  0.0000E+00  0.0000E+00  0.0000E+00  0.0000E+00
     -4.796  0.1529E-14  0.2507E-16  0.2635E-16  0.1607E-16  0.1527E-17  0.2142E-17  0.1965E-17  0.1646E-17  0.1508E-17
     -4.703  0.3378E-07  0.5543E-09  0.5827E-09  0.3556E-09  0.3377E-10  0.4732E-10  0.4342E-10  0.3643E-10  0.3335E-10
     -4.611  0.1110E-02  0.1826E-04  0.1919E-04  0.1174E-04  0.1112E-05  0.1555E-05  0.1428E-05  0.1202E-05  0.1100E-05
     -4.518  0.1098E+00  0.1826E-02  0.1917E-02  0.1183E-02  0.1109E-03  0.1538E-03  0.1415E-03  0.1208E-03  0.1100E-03
     -4.426  0.4003E+00  0.7436E-02  0.7765E-02  0.5132E-02  0.3995E-03  0.5482E-03  0.5173E-03  0.4575E-03  0.4159E-03
     -4.333  0.8002E+00  0.1669E-01  0.1738E-01  0.1186E-01  0.7632E-03  0.1019E-02  0.1058E-02  0.9824E-03  0.9312E-03
     -4.240  0.6755E+00  0.1365E-01  0.1427E-01  0.9302E-02  0.7411E-03  0.8770E-03  0.9720E-03  0.1028E-02  0.9588E-03
     -4.148  0.6394E+00  0.1377E-01  0.1449E-01  0.8690E-02  0.7540E-03  0.8285E-03  0.9443E-03  0.1118E-02  0.9970E-03
     -4.055  0.7451E+00  0.1781E-01  0.1875E-01  0.1126E-01  0.8743E-03  0.9660E-03  0.1119E-02  0.1365E-02  0.1196E-02
     -3.963  0.6398E+00  0.1554E-01  0.1636E-01  0.9807E-02  0.9042E-03  0.8525E-03  0.1027E-02  0.1383E-02  0.1209E-02
     -3.870  0.8121E+00  0.2175E-01  0.2302E-01  0.1284E-01  0.1230E-02  0.1067E-02  0.1317E-02  0.1932E-02  0.1647E-02
     -3.777  0.8704E+00  0.2564E-01  0.2727E-01  0.1423E-01  0.1643E-02  0.9908E-03  0.1211E-02  0.2457E-02  0.1912E-02
     -3.685  0.6433E+00  0.1824E-01  0.1945E-01  0.9730E-02  0.1375E-02  0.7880E-03  0.9726E-03  0.2058E-02  0.1589E-02
     -3.592  0.3752E+00  0.1028E-01  0.1094E-01  0.5648E-02  0.8146E-03  0.5256E-03  0.6481E-03  0.1219E-02  0.9739E-03
     -3.499  0.1195E-01  0.3261E-03  0.3470E-03  0.1798E-03  0.2609E-04  0.1707E-04  0.2102E-04  0.3901E-04  0.3128E-04
     -3.407  0.1577E-05  0.4301E-07  0.4576E-07  0.2371E-07  0.3447E-08  0.2264E-08  0.2786E-08  0.5156E-08  0.4137E-08
     -3.314  0.3384E-12  0.9226E-14  0.9818E-14  0.5086E-14  0.7397E-15  0.4868E-15  0.5991E-15  0.1107E-14  0.8883E-15
     -3.222  0.0000E+00  0.0000E+00  0.0000E+00  0.0000E+00  0.0000E+00  0.0000E+00  0.0000E+00  0.0000E+00  0.0000E+00
     -3.129  0.0000E+00  0.0000E+00  0.0000E+00  0.0000E+00  0.0000E+00  0.0000E+00  0.0000E+00  0.0000E+00  0.0000E+00
     -3.036  0.0000E+00  0.0000E+00  0.0000E+00  0.0000E+00  0.0000E+00  0.0000E+00  0.0000E+00  0.0000E+00  0.0000E+00
     -2.944  0.0000E+00  0.0000E+00  0.0000E+00  0.0000E+00  0.0000E+00  0.0000E+00  0.0000E+00  0.0000E+00  0.0000E+00
     -2.851  0.0000E+00  0.0000E+00  0.0000E+00  0.0000E+00  0.0000E+00  0.0000E+00  0.0000E+00  0.0000E+00  0.0000E+00
     -2.758  0.0000E+00  0.0000E+00  0.0000E+00  0.0000E+00  0.0000E+00  0.0000E+00  0.0000E+00  0.0000E+00  0.0000E+00
     -2.666  0.0000E+00  0.0000E+00  0.0000E+00  0.0000E+00  0.0000E+00  0.0000E+00  0.0000E+00  0.0000E+00  0.0000E+00
     -2.573  0.0000E+00  0.0000E+00  0.0000E+00  0.0000E+00  0.0000E+00  0.0000E+00  0.0000E+00  0.0000E+00  0.0000E+00
     -2.481  0.1350E-16  0.5916E-20  0.4258E-20  0.1752E-19  0.1577E-19  0.1046E-19  0.1461E-19  0.1019E-19  0.1812E-19
     -2.388  0.1028E-08  0.4632E-12  0.3377E-12  0.1342E-11  0.1201E-11  0.7969E-12  0.1113E-11  0.7759E-12  0.1380E-11
     -2.295  0.1091E-03  0.5176E-07  0.3859E-07  0.1439E-06  0.1275E-06  0.8465E-07  0.1182E-06  0.8236E-07  0.1466E-06
     -2.203  0.2709E-01  0.1500E-04  0.1185E-04  0.3705E-04  0.3174E-04  0.2110E-04  0.2943E-04  0.2048E-04  0.3647E-04
     -2.110  0.8771E-01  0.7791E-04  0.6943E-04  0.1373E-03  0.1038E-03  0.6936E-04  0.9646E-04  0.6670E-04  0.1191E-03
     -2.017  0.5216E-01  0.1039E-03  0.1024E-03  0.1141E-03  0.6395E-04  0.4351E-04  0.5990E-04  0.4058E-04  0.7311E-04
     -1.925  0.4058E-01  0.1247E-03  0.1267E-03  0.1113E-03  0.5184E-04  0.3592E-04  0.4894E-04  0.3252E-04  0.5904E-04
     -1.832  0.3628E-01  0.1438E-03  0.1481E-03  0.1143E-03  0.4832E-04  0.3404E-04  0.4594E-04  0.3008E-04  0.5484E-04
     -1.740  0.3500E-01  0.1636E-03  0.1698E-03  0.1202E-03  0.4869E-04  0.3487E-04  0.4660E-04  0.3015E-04  0.5506E-04
     -1.647  0.4606E-01  0.2246E-03  0.2348E-03  0.1532E-03  0.6701E-04  0.4939E-04  0.6479E-04  0.4132E-04  0.7524E-04
     -1.554  0.1206E+00  0.5555E-03  0.5841E-03  0.3548E-03  0.1802E-03  0.1363E-03  0.1758E-03  0.1111E-03  0.2009E-03
     -1.462  0.8521E-01  0.5012E-03  0.5245E-03  0.3382E-03  0.1355E-03  0.1012E-03  0.1314E-03  0.8446E-04  0.1515E-03
     -1.369  0.6578E-01  0.4884E-03  0.5065E-03  0.3613E-03  0.1141E-03  0.8398E-04  0.1098E-03  0.7227E-04  0.1279E-03
     -1.277  0.6827E-01  0.5896E-03  0.6039E-03  0.4894E-03  0.1296E-03  0.9435E-04  0.1239E-03  0.8368E-04  0.1457E-03
     -1.184  0.1216E+00  0.1185E-02  0.1204E-02  0.1055E-02  0.2514E-03  0.1799E-03  0.2389E-03  0.1653E-03  0.2845E-03