 ----------------------------------------------------
    OOO  PPPP  EEEEE N   N M   M PPPP
   O   O P   P E     NN  N MM MM P   P
   O   O PPPP  EEEEE N N N M M M PPPP   -- VERSION
   O   O P     E     N  NN M   M P
    OOO  P     EEEEE N   N M   M P
 ----------------------------------------------------
 running   32 mpi-ranks, with    1 threads/rank
 distrk:  each k-point on   32 cores,    1 groups
 distr:  one band on    8 cores,    4 groups
 vasp.6.3.0 20Jan22 (build Jan 28 2022 00:43:23) complex                        
  
 POSCAR found type information on POSCAR SbO 
 POSCAR found :  2 types and      20 ions
 scaLAPACK will be used
 LDA part: xc-table for Pade appr. of Perdew
 WARNING: stress and forces are not correct
 POSCAR, INCAR and KPOINTS ok, starting setup
 FFT: planning ... GRIDC
 FFT: planning ... GRID_SOFT
 FFT: planning ... GRID
 WAVECAR not read
 charge-density read from file: unknown                                 
 entering main loop
       N       E                     dE             d eps       ncg     rms          rms(c)
DAV:   1     0.987462960157E+03    0.98746E+03   -0.52271E+04 22032   0.163E+03
DAV:   2     0.620535094824E+01   -0.98126E+03   -0.94120E+03 27812   0.299E+02
DAV:   3    -0.115016126578E+03   -0.12122E+03   -0.11949E+03 25648   0.124E+02
DAV:   4    -0.118641962376E+03   -0.36258E+01   -0.36029E+01 27876   0.217E+01
DAV:   5    -0.118761024692E+03   -0.11906E+00   -0.11896E+00 27164   0.373E+00
RMM:   6    -0.118763222617E+03   -0.21979E-02   -0.21979E-02 23299   0.611E-01
RMM:   7    -0.118764024348E+03   -0.80173E-03   -0.80185E-03 30844   0.229E-01
RMM:   8    -0.118764076049E+03   -0.51701E-04   -0.56127E-04 28777   0.819E-02
RMM:   9    -0.118764087147E+03   -0.11098E-04   -0.11326E-04 30426   0.292E-02
RMM:  10    -0.118764088116E+03   -0.96922E-06   -0.10385E-05 22061   0.108E-02
RMM:  11    -0.118764088280E+03   -0.16322E-06   -0.16570E-06 16429   0.365E-03
   1 F= -.12351933E+03 E0= -.12351933E+03  d E =-.103853E-17
