       N       E                     dE             d eps       ncg     rms          rms(c)
DAV:   1     0.958053477298E+03    0.95805E+03   -0.52025E+04  4176   0.154E+03
DAV:   2     0.899236925087E+00   -0.95715E+03   -0.90915E+03  5280   0.287E+02
DAV:   3    -0.115397787202E+03   -0.11630E+03   -0.11440E+03  4920   0.118E+02
DAV:   4    -0.118756728609E+03   -0.33589E+01   -0.33398E+01  5288   0.201E+01
DAV:   5    -0.118847647485E+03   -0.90919E-01   -0.90839E-01  5160   0.327E+00
RMM:   6    -0.118849797074E+03   -0.21496E-02   -0.21496E-02  4369   0.562E-01
RMM:   7    -0.118850692423E+03   -0.89535E-03   -0.89550E-03  5934   0.214E-01
RMM:   8    -0.118850735044E+03   -0.42622E-04   -0.46431E-04  5553   0.766E-02
RMM:   9    -0.118850748662E+03   -0.13618E-04   -0.13723E-04  5746   0.271E-02
RMM:  10    -0.118850749366E+03   -0.70344E-06   -0.76251E-06  4182   0.980E-03
   1 F= -.12360599E+03 E0= -.12360599E+03  d E =0.000000E+00
