 vasp.6.3.0 20Jan22 (build Jan 28 2022 00:43:23) complex                        
  
 executed on             LinuxIFC date 2025.07.23  14:01:55
 running   64 mpi-ranks, with    1 threads/rank
 distrk:  each k-point on   64 cores,    1 groups
 distr:  one band on NCORE=   8 cores,    8 groups


--------------------------------------------------------------------------------------------------------


 INCAR:
   ALGO = Fast
   ICHARG = 11
   LORBIT = 11
   NEDOS = 4000
   ENCUT = 600
   ISMEAR = -5
   EDIFF = 1.0E-6
   PREC = Accurate
   NELM = 200
   MAGMOM = 20*0.6
   ISPIN = 1
   LMAXMIX = 4
   LASPH = True
   IVDW = 12
   LWAVE = .FALSE.
   LCHARG = .FALSE.
   LREAL = Auto
   NPAR = 8

 POTCAR:    PAW_PBE Sb 06Sep2000                  
 POTCAR:    PAW_PBE O 08Apr2002                   
 POTCAR:    PAW_PBE Sb 06Sep2000                  
   VRHFIN =Sb: s2p3                                                                                 
   LEXCH  = PE                                                                                      
   EATOM  =   149.9515 eV,   11.0211 Ry                                                             
                                                                                                    
   TITEL  = PAW_PBE Sb 06Sep2000                                                                    
   LULTRA =        F    use ultrasoft PP ?                                                          
   IUNSCR =        1    unscreen: 0-lin 1-nonlin 2-no                                               
   RPACOR =    2.200    partial core radius                                                         
   POMASS =  121.750; ZVAL   =    5.000    mass and valenz                                          
   RCORE  =    2.300    outmost cutoff radius                                                       
   RWIGS  =    2.980; RWIGS  =    1.577    wigner-seitz radius (au A)                               
   ENMAX  =  172.069; ENMIN  =  129.052 eV                                                          
   ICORE  =        3    local potential                                                             
   LCOR   =        T    correct aug charges                                                         
   LPAW   =        T    paw PP                                                                      
   EAUG   =  380.513                                                                                
   DEXC   =    0.000                                                                                
   RMAX   =    2.346    core radius for proj-oper                                                   
   RAUG   =    1.300    factor for augmentation sphere                                              
   RDEP   =    2.360    radius for radial grids                                                     
   RDEPT  =    2.192    core radius for aug-charge                                                  
                                                                                                    
   Atomic configuration                                                                             
   13 entries                                                                                       
     n  l   j            E        occ.                                                              
     1  0  0.50    -30298.2797   2.0000                                                             
     2  0  0.50     -4610.2252   2.0000                                                             
     2  1  1.50     -4138.3407   6.0000                                                             
     3  0  0.50      -903.8815   2.0000                                                             
     3  1  1.50      -750.1337   6.0000                                                             
     3  2  2.50      -515.7092  10.0000                                                             
     4  0  0.50      -148.8034   2.0000                                                             
     4  1  1.50      -101.7581   6.0000                                                             
     4  2  2.50       -33.5048  10.0000                                                             
     5  0  0.50       -12.8298   2.0000                                                             
     5  1  0.50        -4.8276   3.0000                                                             
     5  2  1.50        -4.0817   0.0000                                                             
     4  3  2.50        -4.0817   0.0000                                                             
   Description                                                                                      
     l       E           TYP  RCUT    TYP  RCUT                                                     
     0    -12.8297861     23  2.300                                                                 
     0     13.6058260     23  2.300                                                                 
     1     -4.8275512     23  2.300                                                                 
     1     -0.7245443     23  2.300                                                                 
     2     -4.0817478     23  2.300                                                                 
     3     -1.3605826     23  2.300                                                                 
  local pseudopotential read in
  partial core-charges read in
  partial kinetic energy density read in
  atomic valenz-charges read in
  non local Contribution for L=           0  read in
    real space projection operators read in
  non local Contribution for L=           0  read in
    real space projection operators read in
  non local Contribution for L=           1  read in
    real space projection operators read in
  non local Contribution for L=           1  read in
    real space projection operators read in
  non local Contribution for L=           2  read in
    real space projection operators read in
    PAW grid and wavefunctions read in
 
   number of l-projection  operators is LMAX  =           5
   number of lm-projection operators is LMMAX =          13
 
 POTCAR:    PAW_PBE O 08Apr2002                   
   VRHFIN =O: s2p4                                                                                  
   LEXCH  = PE                                                                                      
   EATOM  =   432.3788 eV,   31.7789 Ry                                                             
                                                                                                    
   TITEL  = PAW_PBE O 08Apr2002                                                                     
   LULTRA =        F    use ultrasoft PP ?                                                          
   IUNSCR =        1    unscreen: 0-lin 1-nonlin 2-no                                               
   RPACOR =    1.200    partial core radius                                                         
   POMASS =   16.000; ZVAL   =    6.000    mass and valenz                                          
   RCORE  =    1.520    outmost cutoff radius                                                       
   RWIGS  =    1.550; RWIGS  =    0.820    wigner-seitz radius (au A)                               
   ENMAX  =  400.000; ENMIN  =  300.000 eV                                                          
   ICORE  =        2    local potential                                                             
   LCOR   =        T    correct aug charges                                                         
   LPAW   =        T    paw PP                                                                      
   EAUG   =  605.392                                                                                
   DEXC   =    0.000                                                                                
   RMAX   =    1.553    core radius for proj-oper                                                   
   RAUG   =    1.300    factor for augmentation sphere                                              
   RDEP   =    1.550    radius for radial grids                                                     
   RDEPT  =    1.329    core radius for aug-charge                                                  
                                                                                                    
   Atomic configuration                                                                             
    4 entries                                                                                       
     n  l   j            E        occ.                                                              
     1  0  0.50      -514.6923   2.0000                                                             
     2  0  0.50       -23.9615   2.0000                                                             
     2  1  0.50        -9.0305   4.0000                                                             
     3  2  1.50        -9.5241   0.0000                                                             
   Description                                                                                      
     l       E           TYP  RCUT    TYP  RCUT                                                     
     0    -23.9615318     23  1.200                                                                 
     0     -9.5240782     23  1.200                                                                 
     1     -9.0304911     23  1.520                                                                 
     1      8.1634956     23  1.520                                                                 
     2     -9.5240782      7  1.500                                                                 
  local pseudopotential read in
  partial core-charges read in
  partial kinetic energy density read in
  kinetic energy density of atom read in
  atomic valenz-charges read in
  non local Contribution for L=           0  read in
    real space projection operators read in
  non local Contribution for L=           0  read in
    real space projection operators read in
  non local Contribution for L=           1  read in
    real space projection operators read in
  non local Contribution for L=           1  read in
    real space projection operators read in
    PAW grid and wavefunctions read in
 
   number of l-projection  operators is LMAX  =           4
   number of lm-projection operators is LMMAX =           8
 
 Optimization of the real space projectors (new method)

 maximal supplied QI-value         = 16.25
 optimisation between [QCUT,QGAM] = [ 12.51, 25.03] = [ 43.85,175.40] Ry 
 Optimized for a Real-space Cutoff    1.27 Angstroem

   l    n(q)    QCUT    max X(q) W(low)/X(q) W(high)/X(q)  e(spline) 
   0     10    12.514    19.000    0.11E-03    0.67E-04    0.94E-07
   0     10    12.514     9.057    0.13E-03    0.83E-04    0.11E-06
   1      9    12.514   125.345    0.77E-04    0.26E-03    0.21E-06
   1      9    12.514    79.963    0.77E-04    0.25E-03    0.21E-06
   2      9    12.514     6.963    0.99E-04    0.73E-04    0.55E-07
 Optimization of the real space projectors (new method)

 maximal supplied QI-value         = 24.76
 optimisation between [QCUT,QGAM] = [ 12.38, 25.00] = [ 42.90,175.06] Ry 
 Optimized for a Real-space Cutoff    1.16 Angstroem

   l    n(q)    QCUT    max X(q) W(low)/X(q) W(high)/X(q)  e(spline) 
   0      9    12.378    20.381    0.16E-03    0.67E-05    0.31E-06
   0      9    12.378    15.268    0.17E-03    0.81E-05    0.33E-06
   1      8    12.378     5.964    0.20E-03    0.16E-03    0.30E-06
   1      8    12.378     5.382    0.18E-03    0.14E-03    0.26E-06
  PAW_PBE Sb 06Sep2000                  :
 energy of atom  1       EATOM= -149.9515
 kinetic energy error for atom=    0.0003 (will be added to EATOM!!)
  PAW_PBE O 08Apr2002                   :
 energy of atom  2       EATOM= -432.3788
 kinetic energy error for atom=    0.0168 (will be added to EATOM!!)
 
 
 POSCAR: Sb8 O12
  positions in direct lattice
  velocities in cartesian coordinates
 exchange correlation table for  LEXCH =        8
   RHO(1)=    0.500       N(1)  =     2000
   RHO(2)=  100.500       N(2)  =     4000
 


--------------------------------------------------------------------------------------------------------


 ion  position               nearest neighbor table
   1  0.729  0.257  0.257-  10 2.01  15 2.01  19 2.01  14 2.84  13 2.84   9 2.84   5 3.68   7 3.68
                             6 3.68
   2  0.743  0.743  0.743-  13 2.01  17 2.01  14 2.01  19 2.84  20 2.84  15 2.84   3 3.68   8 3.68
                             4 3.68
   3  0.743  0.743  0.271-  13 2.01  11 2.01   9 2.01  16 2.84  10 2.84  19 2.84   8 3.68   4 3.68
                             2 3.68
   4  0.743  0.271  0.743-  14 2.01   9 2.01  12 2.01  10 2.84  18 2.84  15 2.84   3 3.68   2 3.68
                             8 3.68
   5  0.257  0.257  0.729-  18 2.01  15 2.01  20 2.01  14 2.84  17 2.84  12 2.84   1 3.68   6 3.68
                             7 3.68
   6  0.257  0.729  0.257-  16 2.01  20 2.01  19 2.01  17 2.84  13 2.84  11 2.84   5 3.68   7 3.68
                             1 3.68
   7  0.257  0.257  0.257-  18 2.01  10 2.01  16 2.01  12 2.84   9 2.84  11 2.84   5 3.68   1 3.68
                             6 3.68
   8  0.271  0.743  0.743-  17 2.01  11 2.01  12 2.01  16 2.84  18 2.84  20 2.84   3 3.68   2 3.68
                             4 3.68
   9  0.817  0.433  0.433-   4 2.01   3 2.01   7 2.84   1 2.84
  10  0.567  0.183  0.183-   1 2.01   7 2.01   4 2.84   3 2.84
  11  0.433  0.817  0.433-   8 2.01   3 2.01   7 2.84   6 2.84
  12  0.433  0.433  0.817-   4 2.01   8 2.01   7 2.84   5 2.84
  13  0.817  0.817  0.433-   3 2.01   2 2.01   6 2.84   1 2.84
  14  0.817  0.433  0.817-   4 2.01   2 2.01   1 2.84   5 2.84
  15  0.567  0.183  0.567-   1 2.01   5 2.01   2 2.84   4 2.84
  16  0.183  0.567  0.183-   6 2.01   7 2.01   8 2.84   3 2.84
  17  0.433  0.817  0.817-   8 2.01   2 2.01   6 2.84   5 2.84
  18  0.183  0.183  0.567-   5 2.01   7 2.01   4 2.84   8 2.84
  19  0.567  0.567  0.183-   6 2.01   1 2.01   2 2.84   3 2.84
  20  0.183  0.567  0.567-   6 2.01   5 2.01   2 2.84   8 2.84
 
  LATTYP: Found a face centered cubic cell.
 ALAT       =    11.0425260298
  
  Lattice vectors:
  
 A1 = (   6.7621380696,   0.0000000028,   3.9041228009)
 A2 = (   2.2540456779,   6.3754053814,   3.9041228033)
 A3 = (  -0.0000000110,  -0.0000000078,   7.8082445724)


Analysis of symmetry for initial positions (statically):
=====================================================================
 Subroutine PRICEL returns:
 Original cell was already a primitive cell.
 

 Routine SETGRP: Setting up the symmetry group for a 
 face centered cubic supercell.


 Subroutine GETGRP returns: Found 48 space group operations
 (whereof 12 operations were pure point group operations)
 out of a pool of 48 trial point group operations.


The static configuration has the point symmetry D_3d.
 The point group associated with its full space group is O_h .


Analysis of symmetry for dynamics (positions and initial velocities):
=====================================================================
 Subroutine PRICEL returns:
 Original cell was already a primitive cell.
 

 Routine SETGRP: Setting up the symmetry group for a 
 face centered cubic supercell.


 Subroutine GETGRP returns: Found 48 space group operations
 (whereof 12 operations were pure point group operations)
 out of a pool of 48 trial point group operations.


The dynamic configuration has the point symmetry D_3d.
 The point group associated with its full space group is O_h .


 Subroutine INISYM returns: Found 48 space group operations
 (whereof 12 operations are pure point group operations),
 and found     1 'primitive' translations


----------------------------------------------------------------------------------------

                                     Primitive cell                                     

  volume of cell :     336.6241

  direct lattice vectors                    reciprocal lattice vectors
     6.762138070  0.000000003  3.904122801     0.147882221 -0.052284249  0.000000000
     2.254045678  6.375405381  3.904122803    -0.000000000  0.156852771  0.000000000
    -0.000000011 -0.000000008  7.808244572    -0.073941120 -0.052284268  0.128069759

  length of vectors
     7.808244753  7.808245037  7.808244572     0.156852778  0.156852771  0.156852788

  position of ions in fractional coordinates (direct lattice)
     0.728751331  0.257082553  0.257082553
     0.742917447  0.742917447  0.742917447
     0.742917447  0.742917447  0.271248669
     0.742917447  0.271248669  0.742917447
     0.257082553  0.257082553  0.728751331
     0.257082553  0.728751331  0.257082553
     0.257082553  0.257082553  0.257082553
     0.271248669  0.742917447  0.742917447
     0.816721892  0.433278108  0.433278108
     0.566721892  0.183278108  0.183278108
     0.433278108  0.816721892  0.433278108
     0.433278108  0.433278108  0.816721892
     0.816721892  0.816721892  0.433278108
     0.816721892  0.433278108  0.816721892
     0.566721892  0.183278108  0.566721892
     0.183278108  0.566721892  0.183278108
     0.433278108  0.816721892  0.816721892
     0.183278108  0.183278108  0.566721892
     0.566721892  0.566721892  0.183278108
     0.183278108  0.566721892  0.566721892

  ion indices of the primitive-cell ions
   primitive index   ion index
                 1           1
                 2           2
                 3           3
                 4           4
                 5           5
                 6           6
                 7           7
                 8           8
                 9           9
                10          10
                11          11
                12          12
                13          13
                14          14
                15          15
                16          16
                17          17
                18          18
                19          19
                20          20

----------------------------------------------------------------------------------------

 
 
 KPOINTS: pymatgen with grid density = 3000 / numb

Automatic generation of k-mesh.
 Grid dimensions read from file:
 generate k-points for:    8    8    8

 Generating k-lattice:

  Cartesian coordinates                     Fractional coordinates (reciprocal lattice)
     0.018485278 -0.006535531  0.000000000     0.125000000  0.000000000  0.000000000
    -0.000000000  0.019606596  0.000000000     0.000000000  0.125000000  0.000000000
    -0.009242640 -0.006535533  0.016008720     0.000000000  0.000000000  0.125000000

  Length of vectors
     0.019606597  0.019606596  0.019606598

  Shift w.r.t. Gamma in fractional coordinates (k-lattice)
     0.000000000  0.000000000  0.000000000

 TETIRR: Found     76 inequivalent tetrahedra from     3072
 
 Subroutine IBZKPT returns following result:
 ===========================================
 
 Found     29 irreducible k-points:
 
 Following reciprocal coordinates:
            Coordinates               Weight
  0.000000  0.000000  0.000000      1.000000
  0.125000 -0.000000  0.000000      8.000000
  0.250000 -0.000000  0.000000      8.000000
  0.375000 -0.000000  0.000000      8.000000
  0.500000 -0.000000  0.000000      4.000000
  0.125000  0.125000  0.000000      6.000000
  0.250000  0.125000  0.000000     24.000000
  0.375000  0.125000  0.000000     24.000000
  0.500000  0.125000  0.000000     24.000000
 -0.375000  0.125000 -0.000000     24.000000
 -0.250000  0.125000 -0.000000     24.000000
 -0.125000  0.125000 -0.000000     12.000000
  0.250000  0.250000  0.000000      6.000000
  0.375000  0.250000  0.000000     24.000000
  0.500000  0.250000  0.000000     24.000000
 -0.375000  0.250000 -0.000000     24.000000
 -0.250000  0.250000 -0.000000     12.000000
  0.375000  0.375000  0.000000      6.000000
  0.500000  0.375000  0.000000     24.000000
 -0.375000  0.375000 -0.000000     12.000000
  0.500000  0.500000  0.000000      3.000000
  0.375000  0.250000  0.125000     24.000000
  0.500000  0.250000  0.125000     48.000000
 -0.375000  0.250000  0.125000     24.000000
  0.500000  0.375000  0.125000     24.000000
 -0.375000  0.375000  0.125000     48.000000
 -0.250000  0.375000  0.125000     24.000000
 -0.375000  0.500000  0.125000     12.000000
 -0.250000  0.500000  0.250000      6.000000
 
 Following cartesian coordinates:
            Coordinates               Weight
  0.000000  0.000000  0.000000      1.000000
  0.018485 -0.006536  0.000000      8.000000
  0.036971 -0.013071  0.000000      8.000000
  0.055456 -0.019607  0.000000      8.000000
  0.073941 -0.026142  0.000000      4.000000
  0.018485  0.013071  0.000000      6.000000
  0.036971  0.006536  0.000000     24.000000
  0.055456  0.000000  0.000000     24.000000
  0.073941 -0.006536  0.000000     24.000000
 -0.055456  0.039213 -0.000000     24.000000
 -0.036971  0.032678 -0.000000     24.000000
 -0.018485  0.026142  0.000000     12.000000
  0.036971  0.026142  0.000000      6.000000
  0.055456  0.019607  0.000000     24.000000
  0.073941  0.013071  0.000000     24.000000
 -0.055456  0.058820 -0.000000     24.000000
 -0.036971  0.052284  0.000000     12.000000
  0.055456  0.039213  0.000000      6.000000
  0.073941  0.032678  0.000000     24.000000
 -0.055456  0.078426  0.000000     12.000000
  0.073941  0.052284  0.000000      3.000000
  0.046213  0.013071  0.016009     24.000000
  0.064698  0.006536  0.016009     48.000000
 -0.064698  0.052284  0.016009     24.000000
  0.064698  0.026142  0.016009     24.000000
 -0.064698  0.071891  0.016009     48.000000
 -0.046213  0.065355  0.016009     24.000000
 -0.064698  0.091497  0.016009     12.000000
 -0.055456  0.078426  0.032017      6.000000
 


--------------------------------------------------------------------------------------------------------




 Dimension of arrays:
   k-points           NKPTS =     29   k-points in BZ     NKDIM =     29   number of bands    NBANDS=     72
   number of dos      NEDOS =   4000   number of ions     NIONS =     20
   non local maximal  LDIM  =      5   non local SUM 2l+1 LMDIM =     13
   total plane-waves  NPLWV = 262144
   max r-space proj   IRMAX =   6710   max aug-charges    IRDMAX=  43412
   dimension x,y,z NGX =    64 NGY =   64 NGZ =   64
   dimension x,y,z NGXF=   128 NGYF=  128 NGZF=  128
   support grid    NGXF=   128 NGYF=  128 NGZF=  128
   ions per type =               8  12
   NGX,Y,Z   is equivalent  to a cutoff of  13.63, 13.63, 13.63 a.u.
   NGXF,Y,Z  is equivalent  to a cutoff of  27.25, 27.25, 27.25 a.u.

 SYSTEM =  unknown system                          
 POSCAR =  Sb8 O12                                 

 Startparameter for this run:
   NWRITE =      2    write-flag & timer
   PREC   = accura    normal or accurate (medium, high low for compatibility)
   ISTART =      0    job   : 0-new  1-cont  2-samecut
   ICHARG =     11    charge: 1-file 2-atom 10-const
   ISPIN  =      1    spin polarized calculation?
   LNONCOLLINEAR =      F non collinear calculations
   LSORBIT =      F    spin-orbit coupling
   INIWAV =      1    electr: 0-lowe 1-rand  2-diag
   LASPH  =      T    aspherical Exc in radial PAW
 Electronic Relaxation 1
   ENCUT  =  600.0 eV  44.10 Ry    6.64 a.u.  15.60 15.60 15.60*2*pi/ulx,y,z
   ENINI  =  600.0     initial cutoff
   ENAUG  =  605.4 eV  augmentation charge cutoff
   NELM   =    200;   NELMIN=  2; NELMDL= -5     # of ELM steps 
   EDIFF  = 0.1E-05   stopping-criterion for ELM
   LREAL  =      T    real-space projection
   NLSPLINE    = F    spline interpolate recip. space projectors
   LCOMPAT=      F    compatible to vasp.4.4
   GGA_COMPAT  = T    GGA compatible to vasp.4.4-vasp.4.6
   LMAXPAW     = -100 max onsite density
   LMAXMIX     =    4 max onsite mixed and CHGCAR
   VOSKOWN=      0    Vosko Wilk Nusair interpolation
   ROPT   =   -0.00025  -0.00025
 Ionic relaxation
   EDIFFG = 0.1E-04   stopping-criterion for IOM
   NSW    =      0    number of steps for IOM
   NBLOCK =      1;   KBLOCK =      1    inner block; outer block 
   IBRION =     -1    ionic relax: 0-MD 1-quasi-New 2-CG
   NFREE  =      0    steps in history (QN), initial steepest desc. (CG)
   ISIF   =      2    stress and relaxation
   IWAVPR =     10    prediction:  0-non 1-charg 2-wave 3-comb
   ISYM   =      2    0-nonsym 1-usesym 2-fastsym
   LCORR  =      T    Harris-Foulkes like correction to forces

   POTIM  = 0.5000    time-step for ionic-motion
   TEIN   =    0.0    initial temperature
   TEBEG  =    0.0;   TEEND  =   0.0 temperature during run
   SMASS  =  -3.00    Nose mass-parameter (am)
   estimated Nose-frequenzy (Omega)   =  0.10E-29 period in steps = 0.13E+47 mass=  -0.139E-26a.u.
   SCALEE = 1.0000    scale energy and forces
   NPACO  =    256;   APACO  = 10.0  distance and # of slots for P.C.
   PSTRESS=    0.0 pullay stress

  Mass of Ions in am
   POMASS = 121.75 16.00
  Ionic Valenz
   ZVAL   =   5.00  6.00
  Atomic Wigner-Seitz radii
   RWIGS  =  -1.00 -1.00
  virtual crystal weights 
   VCA    =   1.00  1.00
   NELECT =     112.0000    total number of electrons
   NUPDOWN=      -1.0000    fix difference up-down

 DOS related values:
   EMIN   =  10.00;   EMAX   =-10.00  energy-range for DOS
   EFERMI =   0.00
   ISMEAR =    -5;   SIGMA  =   0.20  broadening in eV -4-tet -1-fermi 0-gaus

 Electronic relaxation 2 (details)
   IALGO  =     68    algorithm
   LDIAG  =      T    sub-space diagonalisation (order eigenvalues)
   LSUBROT=      F    optimize rotation matrix (better conditioning)
   TURBO    =      0    0=normal 1=particle mesh
   IRESTART =      0    0=no restart 2=restart with 2 vectors
   NREBOOT  =      0    no. of reboots
   NMIN     =      0    reboot dimension
   EREF     =   0.00    reference energy to select bands
   IMIX   =      4    mixing-type and parameters
     AMIX     =   0.40;   BMIX     =  1.00
     AMIX_MAG =   1.60;   BMIX_MAG =  1.00
     AMIN     =   0.10
     WC   =   100.;   INIMIX=   1;  MIXPRE=   1;  MAXMIX= -45

 Intra band minimization:
   WEIMIN = 0.0000     energy-eigenvalue tresh-hold
   EBREAK =  0.35E-08  absolut break condition
   DEPER  =   0.30     relativ break condition  

   TIME   =   0.40     timestep for ELM

  volume/ion in A,a.u.               =      16.83       113.58
  Fermi-wavevector in a.u.,A,eV,Ry     =   1.134399  2.143703 17.508802  1.286861
  Thomas-Fermi vector in A             =   2.271103
 
 Write flags
   LWAVE        =      F    write WAVECAR
   LDOWNSAMPLE  =      F    k-point downsampling of WAVECAR
   LCHARG       =      F    write CHGCAR
   LVTOT        =      F    write LOCPOT, total local potential
   LVHAR        =      F    write LOCPOT, Hartree potential only
   LELF         =      F    write electronic localiz. function (ELF)
   LORBIT       =     11    0 simple, 1 ext, 2 COOP (PROOUT), +10 PAW based schemes


 Dipole corrections
   LMONO  =      F    monopole corrections only (constant potential shift)
   LDIPOL =      F    correct potential (dipole corrections)
   IDIPOL =      0    1-x, 2-y, 3-z, 4-all directions 
   EPSILON=  1.0000000 bulk dielectric constant

 Exchange correlation treatment:
   GGA     =    --    GGA type
   LEXCH   =     8    internal setting for exchange type
   LIBXC   =     F    Libxc                    
   VOSKOWN =     0    Vosko Wilk Nusair interpolation
   LHFCALC =     F    Hartree Fock is set to
   LHFONE  =     F    Hartree Fock one center treatment
   AEXX    =    0.0000 exact exchange contribution

 Linear response parameters
   LEPSILON=     F    determine dielectric tensor
   LRPA    =     F    only Hartree local field effects (RPA)
   LNABLA  =     F    use nabla operator in PAW spheres
   LVEL    =     F    velocity operator in full k-point grid
   CSHIFT  =0.1000    complex shift for real part using Kramers Kronig
   OMEGAMAX=  -1.0    maximum frequency
   DEG_THRESHOLD= 0.2000000E-02 threshold for treating states as degnerate
   RTIME   =   -0.100 relaxation time in fs
  (WPLASMAI=    0.000 imaginary part of plasma frequency in eV, 0.658/RTIME)
   DFIELD  = 0.0000000 0.0000000 0.0000000 field for delta impulse in time
 
  Optional k-point grid parameters
   LKPOINTS_OPT  =     F    use optional k-point grid
   KPOINTS_OPT_MODE=     1    mode for optional k-point grid
 
 Orbital magnetization related:
   ORBITALMAG=     F  switch on orbital magnetization
   LCHIMAG   =     F  perturbation theory with respect to B field
   DQ        =  0.001000  dq finite difference perturbation B field
   LLRAUG    =     F  two centre corrections for induced B field



--------------------------------------------------------------------------------------------------------


 Static calculation
 charge density and potential remain constant during run
 non-spin polarized calculation
 RMM-DIIS sequential band-by-band and
  variant of blocked Davidson during initial phase
 perform sub-space diagonalisation
    before iterative eigenvector-optimisation
 no mixing
 using additional bands           16
 real space projection scheme for non local part
 use partial core corrections
 calculate Harris-corrections to forces 
   (improved forces if not selfconsistent)
 use gradient corrections 
 WARNING: stress and forces are not correct
  (second derivative of E(xc) not defined)
 use of overlap-Matrix (Vanderbilt PP)
 Fermi weights with tetrahedron method with Bloechl corrections


--------------------------------------------------------------------------------------------------------


  energy-cutoff  :      600.00
  volume of cell :      336.62
      direct lattice vectors                 reciprocal lattice vectors
     6.762138070  0.000000003  3.904122801     0.147882221 -0.052284249  0.000000000
     2.254045678  6.375405381  3.904122803    -0.000000000  0.156852771  0.000000000
    -0.000000011 -0.000000008  7.808244572    -0.073941120 -0.052284268  0.128069759

  length of vectors
     7.808244753  7.808245037  7.808244572     0.156852778  0.156852771  0.156852788


 
 k-points in units of 2pi/SCALE and weight: pymatgen with grid density = 3000 / numb
   0.00000000  0.00000000  0.00000000       0.002
   0.01848528 -0.00653553  0.00000000       0.016
   0.03697056 -0.01307106  0.00000000       0.016
   0.05545583 -0.01960659  0.00000000       0.016
   0.07394111 -0.02614212  0.00000000       0.008
   0.01848528  0.01307107  0.00000000       0.012
   0.03697056  0.00653553  0.00000000       0.047
   0.05545583  0.00000000  0.00000000       0.047
   0.07394111 -0.00653553  0.00000000       0.047
  -0.05545583  0.03921319 -0.00000000       0.047
  -0.03697056  0.03267766 -0.00000000       0.047
  -0.01848528  0.02614213  0.00000000       0.023
   0.03697056  0.02614213  0.00000000       0.012
   0.05545583  0.01960660  0.00000000       0.047
   0.07394111  0.01307107  0.00000000       0.047
  -0.05545583  0.05881979 -0.00000000       0.047
  -0.03697056  0.05228425  0.00000000       0.023
   0.05545583  0.03921320  0.00000000       0.012
   0.07394111  0.03267766  0.00000000       0.047
  -0.05545583  0.07842638  0.00000000       0.023
   0.07394111  0.05228426  0.00000000       0.006
   0.04621319  0.01307107  0.01600872       0.047
   0.06469847  0.00653553  0.01600872       0.094
  -0.06469847  0.05228425  0.01600872       0.047
   0.06469847  0.02614213  0.01600872       0.047
  -0.06469847  0.07189085  0.01600872       0.094
  -0.04621320  0.06535532  0.01600872       0.047
  -0.06469847  0.09149745  0.01600872       0.023
  -0.05545584  0.07842638  0.03201744       0.012
 
 k-points in reciprocal lattice and weights: pymatgen with grid density = 3000 / numb
   0.00000000  0.00000000  0.00000000       0.002
   0.12500000 -0.00000000  0.00000000       0.016
   0.25000000 -0.00000000  0.00000000       0.016
   0.37500000 -0.00000000  0.00000000       0.016
   0.50000000 -0.00000000  0.00000000       0.008
   0.12500000  0.12500000  0.00000000       0.012
   0.25000000  0.12500000  0.00000000       0.047
   0.37500000  0.12500000  0.00000000       0.047
   0.50000000  0.12500000  0.00000000       0.047
  -0.37500000  0.12500000 -0.00000000       0.047
  -0.25000000  0.12500000 -0.00000000       0.047
  -0.12500000  0.12500000 -0.00000000       0.023
   0.25000000  0.25000000  0.00000000       0.012
   0.37500000  0.25000000  0.00000000       0.047
   0.50000000  0.25000000  0.00000000       0.047
  -0.37500000  0.25000000 -0.00000000       0.047
  -0.25000000  0.25000000 -0.00000000       0.023
   0.37500000  0.37500000  0.00000000       0.012
   0.50000000  0.37500000  0.00000000       0.047
  -0.37500000  0.37500000 -0.00000000       0.023
   0.50000000  0.50000000  0.00000000       0.006
   0.37500000  0.25000000  0.12500000       0.047
   0.50000000  0.25000000  0.12500000       0.094
  -0.37500000  0.25000000  0.12500000       0.047
   0.50000000  0.37500000  0.12500000       0.047
  -0.37500000  0.37500000  0.12500000       0.094
  -0.25000000  0.37500000  0.12500000       0.047
  -0.37500000  0.50000000  0.12500000       0.023
  -0.25000000  0.50000000  0.25000000       0.012
 
 position of ions in fractional coordinates (direct lattice) 
   0.72875133  0.25708255  0.25708255
   0.74291745  0.74291745  0.74291745
   0.74291745  0.74291745  0.27124867
   0.74291745  0.27124867  0.74291745
   0.25708255  0.25708255  0.72875133
   0.25708255  0.72875133  0.25708255
   0.25708255  0.25708255  0.25708255
   0.27124867  0.74291745  0.74291745
   0.81672189  0.43327811  0.43327811
   0.56672189  0.18327811  0.18327811
   0.43327811  0.81672189  0.43327811
   0.43327811  0.43327811  0.81672189
   0.81672189  0.81672189  0.43327811
   0.81672189  0.43327811  0.81672189
   0.56672189  0.18327811  0.56672189
   0.18327811  0.56672189  0.18327811
   0.43327811  0.81672189  0.81672189
   0.18327811  0.18327811  0.56672189
   0.56672189  0.56672189  0.18327811
   0.18327811  0.56672189  0.56672189
 
 position of ions in cartesian coordinates  (Angst):
   5.50739293  1.63900549  5.85617999
   6.69828020  4.73639989 11.60176301
   6.69828021  4.73639989  7.91885784
   5.63511723  1.72932022  9.76031018
   2.31790353  1.63900549  7.69763234
   3.38106650  4.64608516  5.85618000
   2.31790353  1.63900549  4.01472716
   3.50879080  4.73639989  9.76031018
   6.49941484  2.76232358  8.26329494
   4.24536890  1.16847224  4.35917240
   4.77081484  5.20693314  8.26329494
   3.90651503  2.76232358  9.76030616
   7.36371464  5.20693314  9.76030656
   6.49941483  2.76232358 11.25731778
   4.24536890  1.16847223  7.35319524
   2.51676890  3.61308180  4.35917240
   4.77081483  5.20693314 11.25731778
   1.65246909  1.16847223  5.85618362
   5.10966871  3.61308180  5.85618401
   2.51676890  3.61308179  7.35319524
 


--------------------------------------------------------------------------------------------------------


 k-point   1 :   0.0000 0.0000 0.0000  plane waves:   11191
 k-point   2 :   0.1250-0.0000 0.0000  plane waves:   11239
 k-point   3 :   0.2500-0.0000 0.0000  plane waves:   11260
 k-point   4 :   0.3750-0.0000 0.0000  plane waves:   11228
 k-point   5 :   0.5000-0.0000 0.0000  plane waves:   11228
 k-point   6 :   0.1250 0.1250 0.0000  plane waves:   11238
 k-point   7 :   0.2500 0.1250 0.0000  plane waves:   11253
 k-point   8 :   0.3750 0.1250 0.0000  plane waves:   11275
 k-point   9 :   0.5000 0.1250 0.0000  plane waves:   11241
 k-point  10 :  -0.3750 0.1250-0.0000  plane waves:   11235
 k-point  11 :  -0.2500 0.1250-0.0000  plane waves:   11250
 k-point  12 :  -0.1250 0.1250-0.0000  plane waves:   11233
 k-point  13 :   0.2500 0.2500 0.0000  plane waves:   11266
 k-point  14 :   0.3750 0.2500 0.0000  plane waves:   11235
 k-point  15 :   0.5000 0.2500 0.0000  plane waves:   11223
 k-point  16 :  -0.3750 0.2500-0.0000  plane waves:   11217
 k-point  17 :  -0.2500 0.2500-0.0000  plane waves:   11206
 k-point  18 :   0.3750 0.3750 0.0000  plane waves:   11210
 k-point  19 :   0.5000 0.3750 0.0000  plane waves:   11216
 k-point  20 :  -0.3750 0.3750-0.0000  plane waves:   11202
 k-point  21 :   0.5000 0.5000 0.0000  plane waves:   11278
 k-point  22 :   0.3750 0.2500 0.1250  plane waves:   11256
 k-point  23 :   0.5000 0.2500 0.1250  plane waves:   11228
 k-point  24 :  -0.3750 0.2500 0.1250  plane waves:   11212
 k-point  25 :   0.5000 0.3750 0.1250  plane waves:   11231
 k-point  26 :  -0.3750 0.3750 0.1250  plane waves:   11217
 k-point  27 :  -0.2500 0.3750 0.1250  plane waves:   11231
 k-point  28 :  -0.3750 0.5000 0.1250  plane waves:   11224
 k-point  29 :  -0.2500 0.5000 0.2500  plane waves:   11180

 maximum and minimum number of plane-waves per node :      1425     1370

 maximum number of plane-waves:     11278
 maximum index in each direction: 
   IXMAX=   15   IYMAX=   15   IZMAX=   15
   IXMIN=  -16   IYMIN=  -16   IZMIN=  -15


 real space projection operators:
  total allocation   :       8975.28 KBytes
  max/ min on nodes  :       1126.77       1108.67


 parallel 3D FFT for wavefunctions:
    minimum data exchange during FFTs selected (reduces bandwidth)
 parallel 3D FFT for charge:
    minimum data exchange during FFTs selected (reduces bandwidth)


 total amount of memory used by VASP MPI-rank0    44943. kBytes
=======================================================================

   base      :      30000. kBytes
   nonlr-proj:       3641. kBytes
   fftplans  :       2091. kBytes
   grid      :       3174. kBytes
   one-center:         24. kBytes
   wavefun   :       6013. kBytes
 
     INWAV:  cpu time      0.0000: real time      0.0000
 initial charge density was supplied:
 number of electron     111.9999984 magnetization 
 keeping initial charge density in first step


--------------------------------------------------------------------------------------------------------


 Maximum index for non-local projection operator          850
 Maximum index for augmentation-charges          333 (set IRDMAX)


--------------------------------------------------------------------------------------------------------


 First call to EWALD:  gamma=   0.255
 Maximum number of real-space cells 3x 3x 3
 Maximum number of reciprocal cells 3x 3x 3

    FEWALD:  cpu time      0.0023: real time      0.0023


--------------------------------------- Iteration      1(   1)  ---------------------------------------


    POTLOK:  cpu time      0.1271: real time      0.1878
    SETDIJ:  cpu time      0.1168: real time      0.1241
     EDDAV:  cpu time      3.3816: real time      3.4404
 BZINTS: Fermi energy:   21.371255;  112.000000 electrons
         Band energy: 0.861321E+03;  BLOECHL correction:   -0.152149
       DOS:  cpu time      0.0402: real time      0.0405
    --------------------------------------------
      LOOP:  cpu time      3.6658: real time      3.7928

 eigenvalue-minimisations  :  4176
 total energy-change (2. order) : 0.9580535E+03  (-0.5202540E+04)
 number of electron     111.9999984 magnetization 
 augmentation part      111.9999984 magnetization 

 Free energy of the ion-electron system (eV)
  ---------------------------------------------------
  alpha Z        PSCENC =        60.73690695
  Ewald energy   TEWEN  =     -4200.73864830
  -Hartree energ DENC   =     -2537.74853475
  -exchange      EXHF   =         0.00000000
  -V(xc)+E(xc)   XCENC  =       -21.02520769
  PAW double counting   =      8952.12085797    -8544.56627860
  entropy T*S    EENTRO =         0.00000000
  eigenvalues    EBANDS =       861.32109437
  atomic energy  EATOM  =      6387.95328734
  Solvation  Ediel_sol  =         0.00000000
  ---------------------------------------------------
  free energy    TOTEN  =       958.05347730 eV

  energy without entropy =      958.05347730  energy(sigma->0) =      958.05347730


--------------------------------------------------------------------------------------------------------




--------------------------------------- Iteration      1(   2)  ---------------------------------------


     EDDAV:  cpu time      4.4324: real time      4.4970
 BZINTS: Fermi energy:    7.083139;  112.000000 electrons
         Band energy:-0.958331E+02;  BLOECHL correction:   -0.000000
       DOS:  cpu time      0.0461: real time      0.0464
    --------------------------------------------
      LOOP:  cpu time      4.4786: real time      4.5434

 eigenvalue-minimisations  :  5280
 total energy-change (2. order) :-0.9571542E+03  (-0.9091470E+03)
 number of electron     111.9999984 magnetization 
 augmentation part      111.9999984 magnetization 

 Free energy of the ion-electron system (eV)
  ---------------------------------------------------
  alpha Z        PSCENC =        60.73690695
  Ewald energy   TEWEN  =     -4200.73864830
  -Hartree energ DENC   =     -2537.74853475
  -exchange      EXHF   =         0.00000000
  -V(xc)+E(xc)   XCENC  =       -21.02520769
  PAW double counting   =      8952.12085797    -8544.56627860
  entropy T*S    EENTRO =         0.00000000
  eigenvalues    EBANDS =       -95.83314600
  atomic energy  EATOM  =      6387.95328734
  Solvation  Ediel_sol  =         0.00000000
  ---------------------------------------------------
  free energy    TOTEN  =         0.89923693 eV

  energy without entropy =        0.89923693  energy(sigma->0) =        0.89923693


--------------------------------------------------------------------------------------------------------




--------------------------------------- Iteration      1(   3)  ---------------------------------------


     EDDAV:  cpu time      2.2407: real time      2.2818
 BZINTS: Fermi energy:    4.367472;  112.000000 electrons
         Band energy:-0.212130E+03;  BLOECHL correction:    0.000000
       DOS:  cpu time      0.0279: real time      0.0281
    --------------------------------------------
      LOOP:  cpu time      2.2686: real time      2.3099

 eigenvalue-minimisations  :  4920
 total energy-change (2. order) :-0.1162970E+03  (-0.1143957E+03)
 number of electron     111.9999984 magnetization 
 augmentation part      111.9999984 magnetization 

 Free energy of the ion-electron system (eV)
  ---------------------------------------------------
  alpha Z        PSCENC =        60.73690695
  Ewald energy   TEWEN  =     -4200.73864830
  -Hartree energ DENC   =     -2537.74853475
  -exchange      EXHF   =         0.00000000
  -V(xc)+E(xc)   XCENC  =       -21.02520769
  PAW double counting   =      8952.12085797    -8544.56627860
  entropy T*S    EENTRO =         0.00000000
  eigenvalues    EBANDS =      -212.13017013
  atomic energy  EATOM  =      6387.95328734
  Solvation  Ediel_sol  =         0.00000000
  ---------------------------------------------------
  free energy    TOTEN  =      -115.39778720 eV

  energy without entropy =     -115.39778720  energy(sigma->0) =     -115.39778720


--------------------------------------------------------------------------------------------------------




--------------------------------------- Iteration      1(   4)  ---------------------------------------


     EDDAV:  cpu time      2.3658: real time      2.4073
 BZINTS: Fermi energy:    4.267257;  112.000000 electrons
         Band energy:-0.215489E+03;  BLOECHL correction:    0.000000
       DOS:  cpu time      0.0290: real time      0.0291
    --------------------------------------------
      LOOP:  cpu time      2.3947: real time      2.4364

 eigenvalue-minimisations  :  5288
 total energy-change (2. order) :-0.3358941E+01  (-0.3339773E+01)
 number of electron     111.9999984 magnetization 
 augmentation part      111.9999984 magnetization 

 Free energy of the ion-electron system (eV)
  ---------------------------------------------------
  alpha Z        PSCENC =        60.73690695
  Ewald energy   TEWEN  =     -4200.73864830
  -Hartree energ DENC   =     -2537.74853475
  -exchange      EXHF   =         0.00000000
  -V(xc)+E(xc)   XCENC  =       -21.02520769
  PAW double counting   =      8952.12085797    -8544.56627860
  entropy T*S    EENTRO =         0.00000000
  eigenvalues    EBANDS =      -215.48911154
  atomic energy  EATOM  =      6387.95328734
  Solvation  Ediel_sol  =         0.00000000
  ---------------------------------------------------
  free energy    TOTEN  =      -118.75672861 eV

  energy without entropy =     -118.75672861  energy(sigma->0) =     -118.75672861


--------------------------------------------------------------------------------------------------------




--------------------------------------- Iteration      1(   5)  ---------------------------------------


     EDDAV:  cpu time      1.9314: real time      1.9431
 BZINTS: Fermi energy:    4.264594;  112.000000 electrons
         Band energy:-0.215580E+03;  BLOECHL correction:    0.000000
       DOS:  cpu time      0.0236: real time      0.0237
    --------------------------------------------
      LOOP:  cpu time      1.9550: real time      1.9668

 eigenvalue-minimisations  :  5160
 total energy-change (2. order) :-0.9091888E-01  (-0.9083913E-01)
 number of electron     111.9999984 magnetization 
 augmentation part      111.9999984 magnetization 

 Free energy of the ion-electron system (eV)
  ---------------------------------------------------
  alpha Z        PSCENC =        60.73690695
  Ewald energy   TEWEN  =     -4200.73864830
  -Hartree energ DENC   =     -2537.74853475
  -exchange      EXHF   =         0.00000000
  -V(xc)+E(xc)   XCENC  =       -21.02520769
  PAW double counting   =      8952.12085797    -8544.56627860
  entropy T*S    EENTRO =         0.00000000
  eigenvalues    EBANDS =      -215.58003041
  atomic energy  EATOM  =      6387.95328734
  Solvation  Ediel_sol  =         0.00000000
  ---------------------------------------------------
  free energy    TOTEN  =      -118.84764749 eV

  energy without entropy =     -118.84764749  energy(sigma->0) =     -118.84764749


--------------------------------------------------------------------------------------------------------




--------------------------------------- Iteration      1(   6)  ---------------------------------------


    EDDIAG:  cpu time      0.4346: real time      0.4582
  RMM-DIIS:  cpu time      0.8760: real time      0.8841
    ORTHCH:  cpu time      0.0749: real time      0.0753
 BZINTS: Fermi energy:    4.264825;  112.000000 electrons
         Band energy:-0.215582E+03;  BLOECHL correction:    0.000000
       DOS:  cpu time      0.0246: real time      0.0248
    --------------------------------------------
      LOOP:  cpu time      1.4101: real time      1.4425

 eigenvalue-minimisations  :  4369
 total energy-change (2. order) :-0.2149589E-02  (-0.2149589E-02)
 number of electron     111.9999984 magnetization 
 augmentation part      111.9999984 magnetization 

 Free energy of the ion-electron system (eV)
  ---------------------------------------------------
  alpha Z        PSCENC =        60.73690695
  Ewald energy   TEWEN  =     -4200.73864830
  -Hartree energ DENC   =     -2537.74853475
  -exchange      EXHF   =         0.00000000
  -V(xc)+E(xc)   XCENC  =       -21.02520769
  PAW double counting   =      8952.12085797    -8544.56627860
  entropy T*S    EENTRO =         0.00000000
  eigenvalues    EBANDS =      -215.58218000
  atomic energy  EATOM  =      6387.95328734
  Solvation  Ediel_sol  =         0.00000000
  ---------------------------------------------------
  free energy    TOTEN  =      -118.84979707 eV

  energy without entropy =     -118.84979707  energy(sigma->0) =     -118.84979707


--------------------------------------------------------------------------------------------------------




--------------------------------------- Iteration      1(   7)  ---------------------------------------


    EDDIAG:  cpu time      0.4050: real time      0.4074
  RMM-DIIS:  cpu time      1.1859: real time      1.1963
    ORTHCH:  cpu time      0.0496: real time      0.0499
 BZINTS: Fermi energy:    4.264772;  112.000000 electrons
         Band energy:-0.215583E+03;  BLOECHL correction:    0.000000
       DOS:  cpu time      0.0230: real time      0.0231
    --------------------------------------------
      LOOP:  cpu time      1.6635: real time      1.6766

 eigenvalue-minimisations  :  5934
 total energy-change (2. order) :-0.8953489E-03  (-0.8955037E-03)
 number of electron     111.9999984 magnetization 
 augmentation part      111.9999984 magnetization 

 Free energy of the ion-electron system (eV)
  ---------------------------------------------------
  alpha Z        PSCENC =        60.73690695
  Ewald energy   TEWEN  =     -4200.73864830
  -Hartree energ DENC   =     -2537.74853475
  -exchange      EXHF   =         0.00000000
  -V(xc)+E(xc)   XCENC  =       -21.02520769
  PAW double counting   =      8952.12085797    -8544.56627860
  entropy T*S    EENTRO =         0.00000000
  eigenvalues    EBANDS =      -215.58307535
  atomic energy  EATOM  =      6387.95328734
  Solvation  Ediel_sol  =         0.00000000
  ---------------------------------------------------
  free energy    TOTEN  =      -118.85069242 eV

  energy without entropy =     -118.85069242  energy(sigma->0) =     -118.85069242


--------------------------------------------------------------------------------------------------------




--------------------------------------- Iteration      1(   8)  ---------------------------------------


    EDDIAG:  cpu time      0.3700: real time      0.3720
  RMM-DIIS:  cpu time      1.0960: real time      1.1043
    ORTHCH:  cpu time      0.0516: real time      0.0520
 BZINTS: Fermi energy:    4.264861;  112.000000 electrons
         Band energy:-0.215583E+03;  BLOECHL correction:    0.000000
       DOS:  cpu time      0.0222: real time      0.0223
    --------------------------------------------
      LOOP:  cpu time      1.5399: real time      1.5505

 eigenvalue-minimisations  :  5553
 total energy-change (2. order) :-0.4262187E-04  (-0.4643127E-04)
 number of electron     111.9999984 magnetization 
 augmentation part      111.9999984 magnetization 

 Free energy of the ion-electron system (eV)
  ---------------------------------------------------
  alpha Z        PSCENC =        60.73690695
  Ewald energy   TEWEN  =     -4200.73864830
  -Hartree energ DENC   =     -2537.74853475
  -exchange      EXHF   =         0.00000000
  -V(xc)+E(xc)   XCENC  =       -21.02520769
  PAW double counting   =      8952.12085797    -8544.56627860
  entropy T*S    EENTRO =         0.00000000
  eigenvalues    EBANDS =      -215.58311797
  atomic energy  EATOM  =      6387.95328734
  Solvation  Ediel_sol  =         0.00000000
  ---------------------------------------------------
  free energy    TOTEN  =      -118.85073504 eV

  energy without entropy =     -118.85073504  energy(sigma->0) =     -118.85073504


--------------------------------------------------------------------------------------------------------




--------------------------------------- Iteration      1(   9)  ---------------------------------------


    EDDIAG:  cpu time      0.3914: real time      0.3937
  RMM-DIIS:  cpu time      1.1241: real time      1.1346
    ORTHCH:  cpu time      0.0463: real time      0.0465
 BZINTS: Fermi energy:    4.264622;  112.000000 electrons
         Band energy:-0.215583E+03;  BLOECHL correction:    0.000000
       DOS:  cpu time      0.0235: real time      0.0236
    --------------------------------------------
      LOOP:  cpu time      1.5853: real time      1.5984

 eigenvalue-minimisations  :  5746
 total energy-change (2. order) :-0.1361786E-04  (-0.1372277E-04)
 number of electron     111.9999984 magnetization 
 augmentation part      111.9999984 magnetization 

 Free energy of the ion-electron system (eV)
  ---------------------------------------------------
  alpha Z        PSCENC =        60.73690695
  Ewald energy   TEWEN  =     -4200.73864830
  -Hartree energ DENC   =     -2537.74853475
  -exchange      EXHF   =         0.00000000
  -V(xc)+E(xc)   XCENC  =       -21.02520769
  PAW double counting   =      8952.12085797    -8544.56627860
  entropy T*S    EENTRO =         0.00000000
  eigenvalues    EBANDS =      -215.58313159
  atomic energy  EATOM  =      6387.95328734
  Solvation  Ediel_sol  =         0.00000000
  ---------------------------------------------------
  free energy    TOTEN  =      -118.85074866 eV

  energy without entropy =     -118.85074866  energy(sigma->0) =     -118.85074866


--------------------------------------------------------------------------------------------------------




--------------------------------------- Iteration      1(  10)  ---------------------------------------


    EDDIAG:  cpu time      0.7444: real time      0.7498
  RMM-DIIS:  cpu time      0.7730: real time      0.7794
    ORTHCH:  cpu time      0.0433: real time      0.0436
 BZINTS: Fermi energy:    4.264599;  112.000000 electrons
         Band energy:-0.215583E+03;  BLOECHL correction:    0.000000
       DOS:  cpu time      0.0148: real time      0.0149
    --------------------------------------------
      LOOP:  cpu time      1.5755: real time      1.5877

 eigenvalue-minimisations  :  4182
 total energy-change (2. order) :-0.7034423E-06  (-0.7625101E-06)
 number of electron     111.9999984 magnetization 
 augmentation part      111.9999984 magnetization 

 Free energy of the ion-electron system (eV)
  ---------------------------------------------------
  alpha Z        PSCENC =        60.73690695
  Ewald energy   TEWEN  =     -4200.73864830
  -Hartree energ DENC   =     -2537.74853475
  -exchange      EXHF   =         0.00000000
  -V(xc)+E(xc)   XCENC  =       -21.02520769
  PAW double counting   =      8952.12085797    -8544.56627860
  entropy T*S    EENTRO =         0.00000000
  eigenvalues    EBANDS =      -215.58313229
  atomic energy  EATOM  =      6387.95328734
  Solvation  Ediel_sol  =         0.00000000
  ---------------------------------------------------
  free energy    TOTEN  =      -118.85074937 eV

  energy without entropy =     -118.85074937  energy(sigma->0) =     -118.85074937


--------------------------------------------------------------------------------------------------------




 average (electrostatic) potential at core
  the test charge radii are     1.1712  0.7215
  (the norm of the test charge is              1.0000)
       1 -87.6200       2 -87.6201       3 -87.6201       4 -87.6200       5 -87.6200
       6 -87.6201       7 -87.6200       8 -87.6201       9 -69.6622      10 -69.6623
      11 -69.6622      12 -69.6622      13 -69.6623      14 -69.6623      15 -69.6623
      16 -69.6623      17 -69.6623      18 -69.6623      19 -69.6623      20 -69.6623
 
 
 
 E-fermi :   4.2646     XC(G=0):  -9.6790     alpha+bet :-11.1773

 Fermi energy:         4.2645994045

 k-point     1 :       0.0000    0.0000    0.0000
  band No.  band energies     occupation 
      1     -14.3697      2.00000
      2     -13.4672      2.00000
      3     -13.0737      2.00000
      4     -13.0737      2.00000
      5     -13.0737      2.00000
      6     -13.0391      2.00000
      7     -13.0391      2.00000
      8     -13.0391      2.00000
      9     -12.8029      2.00000
     10     -12.8029      2.00000
     11     -12.2667      2.00000
     12     -12.2667      2.00000
     13      -4.3983      2.00000
     14      -4.3983      2.00000
     15      -4.3983      2.00000
     16      -3.6519      2.00000
     17      -3.6519      2.00000
     18      -3.6519      2.00000
     19      -2.1962      2.00000
     20      -1.0161      2.00000
     21      -0.6667      2.00000
     22      -0.6667      2.00000
     23      -0.6666      2.00000
     24      -0.1550      2.00000
     25       0.2302      2.00000
     26       0.2302      2.00000
     27       0.2302      2.00000
     28       0.8348      2.00000
     29       0.8348      2.00000
     30       0.8349      2.00000
     31       1.0910      2.00000
     32       1.0910      2.00000
     33       1.0910      2.00000
     34       1.9580      2.00000
     35       2.3209      2.00000
     36       2.3209      2.00000
     37       2.4569      2.00000
     38       2.4569      2.00000
     39       2.4656      2.00000
     40       2.4656      2.00000
     41       2.4656      2.00000
     42       2.5560      2.00000
     43       2.5560      2.00000
     44       2.5560      2.00000
     45       3.5526      2.00000
     46       3.5526      2.00000
     47       3.5526      2.00000
     48       3.8471      2.00000
     49       3.8471      2.00000
     50       3.8471      2.00000
     51       3.8850      2.00000
     52       3.8850      2.00000
     53       3.8850      2.00000
     54       4.0061      2.00000
     55       4.0061      2.00000
     56       4.0061      2.00000
     57       7.2197      0.00000
     58       7.2197      0.00000
     59       7.2197      0.00000
     60       7.9657      0.00000
     61       7.9657      0.00000
     62       8.7263      0.00000
     63       8.8991      0.00000
     64       9.8182      0.00000
     65       9.8182      0.00000
     66       9.8383      0.00000
     67       9.8383      0.00000
     68       9.8383      0.00000
     69      11.6309      0.00000
     70      11.6575      0.00000
     71      11.7104      0.00000
     72      11.8582      0.00000

 k-point     2 :       0.1250   -0.0000    0.0000
  band No.  band energies     occupation 
      1     -14.3512      2.00000
      2     -13.5150      2.00000
      3     -13.1483      2.00000
      4     -13.1114      2.00000
      5     -13.1114      2.00000
      6     -13.0125      2.00000
      7     -13.0125      2.00000
      8     -12.9340      2.00000
      9     -12.7793      2.00000
     10     -12.7793      2.00000
     11     -12.2794      2.00000
     12     -12.2794      2.00000
     13      -4.4197      2.00000
     14      -4.3703      2.00000
     15      -4.3703      2.00000
     16      -3.6786      2.00000
     17      -3.6786      2.00000
     18      -3.6676      2.00000
     19      -2.1238      2.00000
     20      -0.9368      2.00000
     21      -0.6641      2.00000
     22      -0.6641      2.00000
     23      -0.6392      2.00000
     24      -0.2158      2.00000
     25       0.1859      2.00000
     26       0.1903      2.00000
     27       0.1903      2.00000
     28       0.8177      2.00000
     29       0.8177      2.00000
     30       0.8240      2.00000
     31       1.0978      2.00000
     32       1.1385      2.00000
     33       1.1385      2.00000
     34       1.8743      2.00000
     35       2.2993      2.00000
     36       2.2993      2.00000
     37       2.3246      2.00000
     38       2.3246      2.00000
     39       2.5039      2.00000
     40       2.5039      2.00000
     41       2.5084      2.00000
     42       2.5752      2.00000
     43       2.6434      2.00000
     44       2.6434      2.00000
     45       3.5514      2.00000
     46       3.5741      2.00000
     47       3.5742      2.00000
     48       3.7590      2.00000
     49       3.7591      2.00000
     50       3.7843      2.00000
     51       3.8462      2.00000
     52       3.9242      2.00000
     53       3.9242      2.00000
     54       3.9706      2.00000
     55       4.0580      2.00000
     56       4.0580      2.00000
     57       7.2965      0.00000
     58       7.3309      0.00000
     59       7.3309      0.00000
     60       8.0174      0.00000
     61       8.0174      0.00000
     62       8.7579      0.00000
     63       8.9690      0.00000
     64       9.6508      0.00000
     65       9.6508      0.00000
     66       9.9058      0.00000
     67      10.0129      0.00000
     68      10.0129      0.00000
     69      11.4830      0.00000
     70      11.5002      0.00000
     71      11.5195      0.00000
     72      11.6549      0.00000

 k-point     3 :       0.2500   -0.0000    0.0000
  band No.  band energies     occupation 
      1     -14.2993      2.00000
      2     -13.6323      2.00000
      3     -13.1911      2.00000
      4     -13.1571      2.00000
      5     -13.1571      2.00000
      6     -12.9926      2.00000
      7     -12.9926      2.00000
      8     -12.8228      2.00000
      9     -12.7191      2.00000
     10     -12.7191      2.00000
     11     -12.3148      2.00000
     12     -12.3148      2.00000
     13      -4.4680      2.00000
     14      -4.2913      2.00000
     15      -4.2913      2.00000
     16      -3.7546      2.00000
     17      -3.7546      2.00000
     18      -3.7050      2.00000
     19      -1.9363      2.00000
     20      -0.7105      2.00000
     21      -0.6534      2.00000
     22      -0.6534      2.00000
     23      -0.5586      2.00000
     24      -0.3701      2.00000
     25       0.0665      2.00000
     26       0.0943      2.00000
     27       0.0943      2.00000
     28       0.7878      2.00000
     29       0.7879      2.00000
     30       0.7912      2.00000
     31       1.0005      2.00000
     32       1.2410      2.00000
     33       1.2410      2.00000
     34       1.7813      2.00000
     35       2.1057      2.00000
     36       2.1058      2.00000
     37       2.3636      2.00000
     38       2.3636      2.00000
     39       2.4930      2.00000
     40       2.4930      2.00000
     41       2.5984      2.00000
     42       2.6201      2.00000
     43       2.7648      2.00000
     44       2.7648      2.00000
     45       3.5421      2.00000
     46       3.5515      2.00000
     47       3.5515      2.00000
     48       3.5717      2.00000
     49       3.6724      2.00000
     50       3.6725      2.00000
     51       3.8441      2.00000
     52       3.8603      2.00000
     53       3.9697      2.00000
     54       3.9697      2.00000
     55       4.1548      2.00000
     56       4.1549      2.00000
     57       7.4797      0.00000
     58       7.6154      0.00000
     59       7.6154      0.00000
     60       8.1785      0.00000
     61       8.1785      0.00000
     62       8.7516      0.00000
     63       9.1878      0.00000
     64       9.4966      0.00000
     65       9.4966      0.00000
     66      10.1407      0.00000
     67      10.1588      0.00000
     68      10.1600      0.00000
     69      11.1023      0.00000
     70      11.1133      0.00000
     71      11.2339      0.00000
     72      11.5408      0.00000

 k-point     4 :       0.3750   -0.0000    0.0000
  band No.  band energies     occupation 
      1     -14.2296      2.00000
      2     -13.7588      2.00000
      3     -13.2074      2.00000
      4     -13.1882      2.00000
      5     -13.1881      2.00000
      6     -12.9849      2.00000
      7     -12.9849      2.00000
      8     -12.7468      2.00000
      9     -12.6499      2.00000
     10     -12.6499      2.00000
     11     -12.3616      2.00000
     12     -12.3615      2.00000
     13      -4.5120      2.00000
     14      -4.1771      2.00000
     15      -4.1771      2.00000
     16      -3.8658      2.00000
     17      -3.8658      2.00000
     18      -3.7416      2.00000
     19      -1.7168      2.00000
     20      -0.6350      2.00000
     21      -0.6350      2.00000
     22      -0.5521      2.00000
     23      -0.4321      2.00000
     24      -0.3669      2.00000
     25      -0.0970      2.00000
     26      -0.0051      2.00000
     27      -0.0051      2.00000
     28       0.5715      2.00000
     29       0.7660      2.00000
     30       0.7660      2.00000
     31       0.8582      2.00000
     32       1.3424      2.00000
     33       1.3424      2.00000
     34       1.8287      2.00000
     35       1.9396      2.00000
     36       1.9396      2.00000
     37       2.4235      2.00000
     38       2.4235      2.00000
     39       2.4905      2.00000
     40       2.4905      2.00000
     41       2.6633      2.00000
     42       2.7023      2.00000
     43       2.8677      2.00000
     44       2.8677      2.00000
     45       3.3123      2.00000
     46       3.3997      2.00000
     47       3.3997      2.00000
     48       3.5500      2.00000
     49       3.6756      2.00000
     50       3.6756      2.00000
     51       3.7527      2.00000
     52       3.8419      2.00000
     53       4.0260      2.00000
     54       4.0260      2.00000
     55       4.2324      2.00000
     56       4.2324      2.00000
     57       7.6794      0.00000
     58       7.9049      0.00000
     59       7.9049      0.00000
     60       8.4663      0.00000
     61       8.4663      0.00000
     62       8.6253      0.00000
     63       9.3955      0.00000
     64       9.3956      0.00000
     65       9.5673      0.00000
     66      10.0640      0.00000
     67      10.0647      0.00000
     68      10.3432      0.00000
     69      10.8248      0.00000
     70      10.8889      0.00000
     71      10.9566      0.00000
     72      11.2857      0.00000

 k-point     5 :       0.5000   -0.0000    0.0000
  band No.  band energies     occupation 
      1     -14.1895      2.00000
      2     -13.8202      2.00000
      3     -13.2116      2.00000
      4     -13.1990      2.00000
      5     -13.1990      2.00000
      6     -12.9830      2.00000
      7     -12.9830      2.00000
      8     -12.7200      2.00000
      9     -12.6148      2.00000
     10     -12.6148      2.00000
     11     -12.3880      2.00000
     12     -12.3880      2.00000
     13      -4.5292      2.00000
     14      -4.0870      2.00000
     15      -4.0869      2.00000
     16      -3.9547      2.00000
     17      -3.9547      2.00000
     18      -3.7565      2.00000
     19      -1.6074      2.00000
     20      -0.6440      2.00000
     21      -0.6242      2.00000
     22      -0.6242      2.00000
     23      -0.2752      2.00000
     24      -0.2687      2.00000
     25      -0.0547      2.00000
     26      -0.0485      2.00000
     27      -0.0485      2.00000
     28       0.2485      2.00000
     29       0.7585      2.00000
     30       0.7585      2.00000
     31       0.8418      2.00000
     32       1.3897      2.00000
     33       1.3897      2.00000
     34       1.8681      2.00000
     35       1.8681      2.00000
     36       1.8756      2.00000
     37       2.4303      2.00000
     38       2.4303      2.00000
     39       2.5200      2.00000
     40       2.5200      2.00000
     41       2.6807      2.00000
     42       2.7699      2.00000
     43       2.9183      2.00000
     44       2.9183      2.00000
     45       3.1754      2.00000
     46       3.3109      2.00000
     47       3.3109      2.00000
     48       3.5503      2.00000
     49       3.6778      2.00000
     50       3.6778      2.00000
     51       3.7107      2.00000
     52       3.8410      2.00000
     53       4.0529      2.00000
     54       4.0529      2.00000
     55       4.2610      2.00000
     56       4.2610      2.00000
     57       7.7790      0.00000
     58       8.0158      0.00000
     59       8.0158      0.00000
     60       8.5406      0.00000
     61       8.6809      0.00000
     62       8.6809      0.00000
     63       9.4047      0.00000
     64       9.4050      0.00000
     65       9.7996      0.00000
     66       9.8009      0.00000
     67       9.9332      0.00000
     68      10.0907      0.00000
     69      10.8738      0.00000
     70      10.9029      0.00000
     71      11.0344      0.00000
     72      11.0892      0.00000

 k-point     6 :       0.1250    0.1250    0.0000
  band No.  band energies     occupation 
      1     -14.3449      2.00000
      2     -13.5281      2.00000
      3     -13.1613      2.00000
      4     -13.1613      2.00000
      5     -13.0726      2.00000
      6     -13.0372      2.00000
      7     -12.9482      2.00000
      8     -12.9482      2.00000
      9     -12.7839      2.00000
     10     -12.7606      2.00000
     11     -12.2887      2.00000
     12     -12.2788      2.00000
     13      -4.3924      2.00000
     14      -4.3788      2.00000
     15      -4.3787      2.00000
     16      -3.7039      2.00000
     17      -3.6712      2.00000
     18      -3.6712      2.00000
     19      -2.0989      2.00000
     20      -0.9111      2.00000
     21      -0.6633      2.00000
     22      -0.6633      2.00000
     23      -0.6315      2.00000
     24      -0.2355      2.00000
     25       0.1703      2.00000
     26       0.1703      2.00000
     27       0.1900      2.00000
     28       0.7997      2.00000
     29       0.7997      2.00000
     30       0.8444      2.00000
     31       1.1315      2.00000
     32       1.1426      2.00000
     33       1.1426      2.00000
     34       1.8473      2.00000
     35       2.2437      2.00000
     36       2.3007      2.00000
     37       2.3384      2.00000
     38       2.3405      2.00000
     39       2.3405      2.00000
     40       2.4893      2.00000
     41       2.5859      2.00000
     42       2.6412      2.00000
     43       2.6412      2.00000
     44       2.6919      2.00000
     45       3.5403      2.00000
     46       3.5840      2.00000
     47       3.5840      2.00000
     48       3.7488      2.00000
     49       3.7746      2.00000
     50       3.7746      2.00000
     51       3.8072      2.00000
     52       3.9175      2.00000
     53       3.9175      2.00000
     54       3.9666      2.00000
     55       4.0717      2.00000
     56       4.0717      2.00000
     57       7.2939      0.00000
     58       7.3871      0.00000
     59       7.3871      0.00000
     60       7.9834      0.00000
     61       8.0780      0.00000
     62       8.7573      0.00000
     63       9.0020      0.00000
     64       9.4861      0.00000
     65       9.8254      0.00000
     66       9.9256      0.00000
     67       9.9257      0.00000
     68      10.1023      0.00000
     69      11.4548      0.00000
     70      11.4701      0.00000
     71      11.4855      0.00000
     72      11.6075      0.00000

 k-point     7 :       0.2500    0.1250    0.0000
  band No.  band energies     occupation 
      1     -14.3033      2.00000
      2     -13.6179      2.00000
      3     -13.2179      2.00000
      4     -13.2024      2.00000
      5     -13.0700      2.00000
      6     -13.0452      2.00000
      7     -12.9209      2.00000
      8     -12.8656      2.00000
      9     -12.7378      2.00000
     10     -12.7078      2.00000
     11     -12.3211      2.00000
     12     -12.3028      2.00000
     13      -4.4297      2.00000
     14      -4.3335      2.00000
     15      -4.3046      2.00000
     16      -3.7744      2.00000
     17      -3.7150      2.00000
     18      -3.7025      2.00000
     19      -1.9467      2.00000
     20      -0.7370      2.00000
     21      -0.6554      2.00000
     22      -0.6537      2.00000
     23      -0.5733      2.00000
     24      -0.3580      2.00000
     25       0.0852      2.00000
     26       0.0944      2.00000
     27       0.1153      2.00000
     28       0.7526      2.00000
     29       0.7688      2.00000
     30       0.8448      2.00000
     31       1.1062      2.00000
     32       1.2129      2.00000
     33       1.2275      2.00000
     34       1.7399      2.00000
     35       2.0361      2.00000
     36       2.1893      2.00000
     37       2.2862      2.00000
     38       2.3415      2.00000
     39       2.3821      2.00000
     40       2.5082      2.00000
     41       2.6231      2.00000
     42       2.7100      2.00000
     43       2.7302      2.00000
     44       2.8160      2.00000
     45       3.5303      2.00000
     46       3.5641      2.00000
     47       3.5750      2.00000
     48       3.6412      2.00000
     49       3.6943      2.00000
     50       3.7218      2.00000
     51       3.7848      2.00000
     52       3.8226      2.00000
     53       3.9464      2.00000
     54       4.0391      2.00000
     55       4.1066      2.00000
     56       4.1366      2.00000
     57       7.4517      0.00000
     58       7.6024      0.00000
     59       7.6416      0.00000
     60       8.0721      0.00000
     61       8.2237      0.00000
     62       8.7853      0.00000
     63       9.1211      0.00000
     64       9.3115      0.00000
     65       9.7173      0.00000
     66      10.0917      0.00000
     67      10.1095      0.00000
     68      10.2538      0.00000
     69      11.0773      0.00000
     70      11.2017      0.00000
     71      11.2450      0.00000
     72      11.4424      0.00000

 k-point     8 :       0.3750    0.1250    0.0000
  band No.  band energies     occupation 
      1     -14.2363      2.00000
      2     -13.7395      2.00000
      3     -13.2649      2.00000
      4     -13.2255      2.00000
      5     -13.0997      2.00000
      6     -13.0088      2.00000
      7     -12.9266      2.00000
      8     -12.7927      2.00000
      9     -12.6636      2.00000
     10     -12.6411      2.00000
     11     -12.3674      2.00000
     12     -12.3455      2.00000
     13      -4.4766      2.00000
     14      -4.2424      2.00000
     15      -4.1920      2.00000
     16      -3.8766      2.00000
     17      -3.8028      2.00000
     18      -3.7438      2.00000
     19      -1.7287      2.00000
     20      -0.6486      2.00000
     21      -0.6301      2.00000
     22      -0.5328      2.00000
     23      -0.4742      2.00000
     24      -0.4288      2.00000
     25      -0.0613      2.00000
     26       0.0047      2.00000
     27       0.0198      2.00000
     28       0.6782      2.00000
     29       0.7407      2.00000
     30       0.7499      2.00000
     31       0.9699      2.00000
     32       1.3088      2.00000
     33       1.3323      2.00000
     34       1.7150      2.00000
     35       1.8620      2.00000
     36       2.0038      2.00000
     37       2.2991      2.00000
     38       2.4095      2.00000
     39       2.4703      2.00000
     40       2.4912      2.00000
     41       2.6682      2.00000
     42       2.7950      2.00000
     43       2.8311      2.00000
     44       2.9091      2.00000
     45       3.3995      2.00000
     46       3.4235      2.00000
     47       3.5043      2.00000
     48       3.5311      2.00000
     49       3.6483      2.00000
     50       3.7142      2.00000
     51       3.7581      2.00000
     52       3.8043      2.00000
     53       4.0094      2.00000
     54       4.0501      2.00000
     55       4.1728      2.00000
     56       4.2060      2.00000
     57       7.7070      0.00000
     58       7.8276      0.00000
     59       7.9697      0.00000
     60       8.3487      0.00000
     61       8.4384      0.00000
     62       8.7476      0.00000
     63       9.1521      0.00000
     64       9.3527      0.00000
     65       9.5999      0.00000
     66      10.1323      0.00000
     67      10.2257      0.00000
     68      10.4263      0.00000
     69      10.7275      0.00000
     70      10.8593      0.00000
     71      10.8716      0.00000
     72      11.0882      0.00000

 k-point     9 :       0.5000    0.1250    0.0000
  band No.  band energies     occupation 
      1     -14.1775      2.00000
      2     -13.8286      2.00000
      3     -13.2927      2.00000
      4     -13.2265      2.00000
      5     -13.1196      2.00000
      6     -12.9750      2.00000
      7     -12.9445      2.00000
      8     -12.7552      2.00000
      9     -12.6129      2.00000
     10     -12.5898      2.00000
     11     -12.4003      2.00000
     12     -12.3883      2.00000
     13      -4.5037      2.00000
     14      -4.1250      2.00000
     15      -4.1034      2.00000
     16      -3.9583      2.00000
     17      -3.9172      2.00000
     18      -3.7699      2.00000
     19      -1.5637      2.00000
     20      -0.6852      2.00000
     21      -0.6179      2.00000
     22      -0.6077      2.00000
     23      -0.3433      2.00000
     24      -0.2305      2.00000
     25      -0.0651      2.00000
     26      -0.0493      2.00000
     27      -0.0397      2.00000
     28       0.3560      2.00000
     29       0.6633      2.00000
     30       0.7506      2.00000
     31       0.9394      2.00000
     32       1.3756      2.00000
     33       1.3983      2.00000
     34       1.7168      2.00000
     35       1.8421      2.00000
     36       1.8453      2.00000
     37       2.3239      2.00000
     38       2.4599      2.00000
     39       2.4953      2.00000
     40       2.5417      2.00000
     41       2.6945      2.00000
     42       2.8554      2.00000
     43       2.9084      2.00000
     44       2.9684      2.00000
     45       3.2831      2.00000
     46       3.2925      2.00000
     47       3.3301      2.00000
     48       3.5288      2.00000
     49       3.6597      2.00000
     50       3.7073      2.00000
     51       3.7315      2.00000
     52       3.8129      2.00000
     53       4.0361      2.00000
     54       4.0648      2.00000
     55       4.2063      2.00000
     56       4.2535      2.00000
     57       7.8856      0.00000
     58       8.0075      0.00000
     59       8.1093      0.00000
     60       8.5725      0.00000
     61       8.7092      0.00000
     62       8.7384      0.00000
     63       9.1890      0.00000
     64       9.5290      0.00000
     65       9.5401      0.00000
     66       9.7908      0.00000
     67       9.9692      0.00000
     68      10.2899      0.00000
     69      10.7408      0.00000
     70      10.8343      0.00000
     71      11.0067      0.00000
     72      11.0424      0.00000

 k-point    10 :      -0.3750    0.1250   -0.0000
  band No.  band energies     occupation 
      1     -14.1928      2.00000
      2     -13.8068      2.00000
      3     -13.2968      2.00000
      4     -13.2042      2.00000
      5     -13.1321      2.00000
      6     -12.9696      2.00000
      7     -12.9468      2.00000
      8     -12.7655      2.00000
      9     -12.6308      2.00000
     10     -12.5965      2.00000
     11     -12.3887      2.00000
     12     -12.3803      2.00000
     13      -4.4999      2.00000
     14      -4.1824      2.00000
     15      -4.0925      2.00000
     16      -3.9486      2.00000
     17      -3.8782      2.00000
     18      -3.7664      2.00000
     19      -1.6048      2.00000
     20      -0.6622      2.00000
     21      -0.6123      2.00000
     22      -0.6086      2.00000
     23      -0.3870      2.00000
     24      -0.1879      2.00000
     25      -0.1810      2.00000
     26      -0.0330      2.00000
     27      -0.0251      2.00000
     28       0.4760      2.00000
     29       0.6566      2.00000
     30       0.7657      2.00000
     31       0.9407      2.00000
     32       1.3173      2.00000
     33       1.4182      2.00000
     34       1.7862      2.00000
     35       1.8011      2.00000
     36       1.8544      2.00000
     37       2.3519      2.00000
     38       2.4122      2.00000
     39       2.5152      2.00000
     40       2.5473      2.00000
     41       2.6877      2.00000
     42       2.8225      2.00000
     43       2.9032      2.00000
     44       2.9310      2.00000
     45       3.2991      2.00000
     46       3.3451      2.00000
     47       3.3580      2.00000
     48       3.5296      2.00000
     49       3.6764      2.00000
     50       3.7046      2.00000
     51       3.7406      2.00000
     52       3.8077      2.00000
     53       4.0029      2.00000
     54       4.0757      2.00000
     55       4.1844      2.00000
     56       4.2573      2.00000
     57       7.8492      0.00000
     58       7.9963      0.00000
     59       8.0425      0.00000
[...]
     67      10.0463      0.00000
     68      10.0577      0.00000
     69      10.5446      0.00000
     70      10.6736      0.00000
     71      11.0082      0.00000
     72      11.3077      0.00000

 k-point    28 :      -0.3750    0.5000    0.1250
  band No.  band energies     occupation 
      1     -14.0080      2.00000
      2     -14.0080      2.00000
      3     -13.3344      2.00000
      4     -13.3343      2.00000
      5     -13.0240      2.00000
      6     -13.0240      2.00000
      7     -12.7966      2.00000
      8     -12.7966      2.00000
      9     -12.5323      2.00000
     10     -12.5322      2.00000
     11     -12.4596      2.00000
     12     -12.4596      2.00000
     13      -4.2895      2.00000
     14      -4.2895      2.00000
     15      -4.0881      2.00000
     16      -4.0881      2.00000
     17      -3.8357      2.00000
     18      -3.8357      2.00000
     19      -1.0884      2.00000
     20      -1.0884      2.00000
     21      -0.6231      2.00000
     22      -0.6231      2.00000
     23      -0.2777      2.00000
     24      -0.2777      2.00000
     25      -0.0872      2.00000
     26      -0.0872      2.00000
     27       0.3852      2.00000
     28       0.3852      2.00000
     29       0.6341      2.00000
     30       0.6341      2.00000
     31       1.0734      2.00000
     32       1.0734      2.00000
     33       1.3952      2.00000
     34       1.3952      2.00000
     35       1.8101      2.00000
     36       1.8101      2.00000
     37       2.1362      2.00000
     38       2.1363      2.00000
     39       2.6495      2.00000
     40       2.6495      2.00000
     41       2.7952      2.00000
     42       2.7952      2.00000
     43       3.0042      2.00000
     44       3.0042      2.00000
     45       3.3637      2.00000
     46       3.3637      2.00000
     47       3.5058      2.00000
     48       3.5058      2.00000
     49       3.6489      2.00000
     50       3.6489      2.00000
     51       3.8048      2.00000
     52       3.8048      2.00000
     53       4.0250      2.00000
     54       4.0250      2.00000
     55       4.2023      2.00000
     56       4.2024      2.00000
     57       8.2021      0.00000
     58       8.2021      0.00000
     59       8.5326      0.00000
     60       8.5327      0.00000
     61       8.8979      0.00000
     62       8.8979      0.00000
     63       9.3523      0.00000
     64       9.3524      0.00000
     65       9.5880      0.00000
     66       9.5882      0.00000
     67       9.9741      0.00000
     68       9.9754      0.00000
     69      10.4729      0.00000
     70      10.4882      0.00000
     71      11.1247      0.00000
     72      11.3158      0.00000

 k-point    29 :      -0.2500    0.5000    0.2500
  band No.  band energies     occupation 
      1     -14.0071      2.00000
      2     -14.0070      2.00000
      3     -13.3461      2.00000
      4     -13.3461      2.00000
      5     -12.9875      2.00000
      6     -12.9875      2.00000
      7     -12.8299      2.00000
      8     -12.8298      2.00000
      9     -12.5193      2.00000
     10     -12.5192      2.00000
     11     -12.4650      2.00000
     12     -12.4650      2.00000
     13      -4.3168      2.00000
     14      -4.3168      2.00000
     15      -4.0203      2.00000
     16      -4.0203      2.00000
     17      -3.8766      2.00000
     18      -3.8766      2.00000
     19      -1.0901      2.00000
     20      -1.0901      2.00000
     21      -0.5867      2.00000
     22      -0.5867      2.00000
     23      -0.3310      2.00000
     24      -0.3309      2.00000
     25      -0.0799      2.00000
     26      -0.0799      2.00000
     27       0.4519      2.00000
     28       0.4519      2.00000
     29       0.6245      2.00000
     30       0.6246      2.00000
     31       0.9429      2.00000
     32       0.9429      2.00000
     33       1.4660      2.00000
     34       1.4660      2.00000
     35       1.7337      2.00000
     36       1.7337      2.00000
     37       2.3480      2.00000
     38       2.3480      2.00000
     39       2.5458      2.00000
     40       2.5458      2.00000
     41       2.7815      2.00000
     42       2.7815      2.00000
     43       3.1010      2.00000
     44       3.1010      2.00000
     45       3.3211      2.00000
     46       3.3211      2.00000
     47       3.4505      2.00000
     48       3.4505      2.00000
     49       3.6392      2.00000
     50       3.6392      2.00000
     51       3.8086      2.00000
     52       3.8086      2.00000
     53       4.0576      2.00000
     54       4.0576      2.00000
     55       4.1536      2.00000
     56       4.1536      2.00000
     57       8.4057      0.00000
     58       8.4057      0.00000
     59       8.5819      0.00000
     60       8.5819      0.00000
     61       8.7282      0.00000
     62       8.7282      0.00000
     63       9.1733      0.00000
     64       9.1733      0.00000
     65       9.7119      0.00000
     66       9.7119      0.00000
     67      10.0622      0.00000
     68      10.0624      0.00000
     69      10.2233      0.00000
     70      10.2235      0.00000
     71      11.1572      0.00000
     72      11.2039      0.00000


--------------------------------------------------------------------------------------------------------


 soft charge-density along one line, spin component           1
         0         1         2         3         4         5         6         7         8         9
 total charge-density along one line
 
 pseudopotential strength for first ion, spin component:           1
 40.168 -67.986   0.029  -0.000  -0.083   0.047  -0.000  -0.134
-67.986 117.504  -0.049   0.000   0.139  -0.079   0.000   0.224
  0.029  -0.049   9.259  -0.000   0.003  14.746  -0.000   0.005
 -0.000   0.000  -0.000   9.260   0.000  -0.000  14.748   0.000
 -0.083   0.139   0.003   0.000   9.251   0.005   0.000  14.733
  0.047  -0.079  14.746  -0.000   0.005  23.496  -0.000   0.008
 -0.000   0.000  -0.000  14.748   0.000  -0.000  23.499   0.000
 -0.134   0.224   0.005   0.000  14.733   0.008   0.000  23.475
  0.005  -0.008  -0.004  -0.000   0.004  -0.008  -0.000   0.007
 -0.000   0.000  -0.000   0.002  -0.000  -0.000   0.003  -0.000
  0.004  -0.008  -0.001  -0.000   0.005  -0.002  -0.000   0.009
  0.000  -0.000  -0.000  -0.002  -0.000  -0.000  -0.005  -0.000
 -0.006   0.010   0.001  -0.000  -0.007   0.001  -0.000  -0.012
 total augmentation occupancy for first ion, spin component:           1
  2.000   0.000   0.000   0.000   0.000   0.000   0.000   0.000   0.000   0.000   0.000   0.000   0.000
  0.000   0.000   0.000   0.000   0.000   0.000   0.000   0.000   0.000   0.000   0.000   0.000   0.000
  0.000   0.000   1.000   0.000   0.000   0.000   0.000   0.000   0.000   0.000   0.000   0.000   0.000
  0.000   0.000   0.000   1.000   0.000   0.000   0.000   0.000   0.000   0.000   0.000   0.000   0.000
  0.000   0.000   0.000   0.000   1.000   0.000   0.000   0.000   0.000   0.000   0.000   0.000   0.000
  0.000   0.000   0.000   0.000   0.000   0.000   0.000   0.000   0.000   0.000   0.000   0.000   0.000
  0.000   0.000   0.000   0.000   0.000   0.000   0.000   0.000   0.000   0.000   0.000   0.000   0.000
  0.000   0.000   0.000   0.000   0.000   0.000   0.000   0.000   0.000   0.000   0.000   0.000   0.000
  0.000   0.000   0.000   0.000   0.000   0.000   0.000   0.000   0.000   0.000   0.000   0.000   0.000
  0.000   0.000   0.000   0.000   0.000   0.000   0.000   0.000   0.000   0.000   0.000   0.000   0.000
  0.000   0.000   0.000   0.000   0.000   0.000   0.000   0.000   0.000   0.000   0.000   0.000   0.000
  0.000   0.000   0.000   0.000   0.000   0.000   0.000   0.000   0.000   0.000   0.000   0.000   0.000
  0.000   0.000   0.000   0.000   0.000   0.000   0.000   0.000   0.000   0.000   0.000   0.000   0.000


------------------------ aborting loop because EDIFF is reached ----------------------------------------





 total charge

# of ion       s       p       d       tot
------------------------------------------
    1        1.232   0.915   0.120   2.267
    2        1.232   0.915   0.120   2.267
    3        1.232   0.915   0.120   2.267
    4        1.232   0.915   0.120   2.267
    5        1.232   0.915   0.120   2.267
    6        1.232   0.915   0.120   2.267
    7        1.232   0.915   0.120   2.267
    8        1.232   0.915   0.120   2.267
    9        1.570   3.461   0.000   5.032
   10        1.570   3.461   0.000   5.032
   11        1.570   3.461   0.000   5.032
   12        1.570   3.461   0.000   5.032
   13        1.570   3.461   0.000   5.032
   14        1.570   3.461   0.000   5.032
   15        1.570   3.461   0.000   5.032
   16        1.570   3.461   0.000   5.032
   17        1.570   3.461   0.000   5.032
   18        1.570   3.461   0.000   5.032
   19        1.570   3.461   0.000   5.032
   20        1.570   3.461   0.000   5.032
--------------------------------------------------
tot         28.703  48.851   0.959  78.513
 
    CHARGE:  cpu time      0.7666: real time      1.9918
    FORLOC:  cpu time      0.0024: real time      0.0024
    FORNL :  cpu time      0.3964: real time      0.4196
    STRESS:  cpu time      1.6234: real time      1.6880
    FORCOR:  cpu time      0.0188: real time      0.0190
    FORHAR:  cpu time      0.0052: real time      0.0053
    OFIELD:  cpu time      0.0000: real time      0.0000

 ---------------------------------------------------------------------------------------------

         DFTD3 V3.0 Rev 1        
 IVDW         = 12
 DF pbe       
 parameters
 VDW_S6       =    1.0000
 VDW_S8       =    0.7875
 VDW_A1       =    0.4289
 VDW_A2       =    4.4407
 k1-k3        =   16.0000    1.3333   -4.0000
 VDW_RADIUS   =   50.2022 A
 VDW_CNRADIUS =   21.1671 A
 Edisp (eV)   -4.75524

 E6    (eV) :    -2.7937
 E8    (eV) :    -1.9615
 % E8        : 41.25
    FORVDW:  cpu time      0.0476: real time      0.0479

  FORCE on cell =-STRESS in cart. coord.  units (eV):
  Direction    XX          YY          ZZ          XY          YZ          ZX
  --------------------------------------------------------------------------------------
  Alpha Z    60.73691    60.73691    60.73691
  Ewald   -1400.25125 -1400.25155 -1400.25054     0.00019     0.00028     0.00040
  Hartree   845.89933   845.89934   845.89942    -0.00001     0.00004     0.00006
  E(xc)    -523.84069  -523.84067  -523.84075    -0.00002    -0.00004    -0.00005
  Local   -1134.71351 -1134.71356 -1134.71377     0.00007    -0.00007    -0.00009
  n-local   351.96792   352.52509   352.59703     0.41368    -0.03298    -0.05138
  augment   -51.41863   -51.41855   -51.41890    -0.00010    -0.00016    -0.00023
  Kinetic  1851.59075  1856.70263  1859.63142    -0.46691    -0.52065    -0.14003
  Fock        0.00000     0.00000     0.00000     0.00000     0.00000     0.00000
  vdW        -4.70434    -4.70434    -4.70434     0.00000     0.00000     0.00000
  -------------------------------------------------------------------------------------
  Total       0.04608     0.04608     0.04608    -0.00000     0.00000     0.00000
  in kB       0.21931     0.21931     0.21931    -0.00000     0.00000     0.00000
  external pressure =        0.22 kB  Pullay stress =        0.00 kB


 VOLUME and BASIS-vectors are now :
 -----------------------------------------------------------------------------
  energy-cutoff  :      600.00
  volume of cell :      336.62
      direct lattice vectors                 reciprocal lattice vectors
     6.762138070  0.000000003  3.904122801     0.147882221 -0.052284249  0.000000000
     2.254045678  6.375405381  3.904122803    -0.000000000  0.156852771  0.000000000
    -0.000000011 -0.000000008  7.808244572    -0.073941120 -0.052284268  0.128069759

  length of vectors
     7.808244753  7.808245037  7.808244572     0.156852778  0.156852771  0.156852788


 FORCES acting on ions
    electron-ion (+dipol)            ewald-force                    non-local-force                 convergence-correction
 -----------------------------------------------------------------------------------------------
   -.154E+03 0.545E+02 0.399E-04   0.167E+03 -.590E+02 0.646E-03   -.128E+02 0.451E+01 -.727E-06   -.930E-03 0.158E-03 -.278E-03
   -.771E+02 -.545E+02 -.133E+03   0.834E+02 0.590E+02 0.145E+03   -.639E+01 -.451E+01 -.111E+02   -.471E-03 -.333E-03 -.816E-03
   -.771E+02 -.545E+02 0.133E+03   0.834E+02 0.590E+02 -.145E+03   -.639E+01 -.451E+01 0.111E+02   -.224E-03 -.158E-03 0.945E-03
   0.146E-03 0.163E+03 0.257E-03   -.369E-03 -.177E+03 -.646E-03   -.726E-06 0.135E+02 0.734E-06   0.161E-03 0.930E-03 0.279E-03
   0.771E+02 0.545E+02 -.133E+03   -.834E+02 -.590E+02 0.145E+03   0.639E+01 0.451E+01 -.111E+02   0.224E-03 0.158E-03 -.945E-03
   0.554E-03 -.163E+03 0.954E-03   0.369E-03 0.177E+03 0.646E-03   0.726E-06 -.135E+02 -.734E-06   -.161E-03 -.930E-03 -.278E-03
   0.771E+02 0.545E+02 0.133E+03   -.834E+02 -.590E+02 -.145E+03   0.639E+01 0.451E+01 0.111E+02   0.471E-03 0.333E-03 0.816E-03
   0.154E+03 -.545E+02 -.657E-03   -.167E+03 0.590E+02 -.646E-03   0.128E+02 -.451E+01 0.727E-06   0.930E-03 -.158E-03 0.279E-03
   -.460E+02 0.650E+02 0.797E+02   0.523E+02 -.740E+02 -.906E+02   -.631E+01 0.893E+01 0.109E+02   -.138E-03 0.773E-03 0.118E-02
   -.460E+02 0.650E+02 0.797E+02   0.523E+02 -.740E+02 -.906E+02   -.631E+01 0.893E+01 0.109E+02   -.147E-03 0.638E-03 0.957E-03
   0.460E+02 -.650E+02 0.797E+02   -.523E+02 0.740E+02 -.906E+02   0.631E+01 -.893E+01 0.109E+02   0.683E-03 -.387E-03 0.118E-02
   0.920E+02 0.650E+02 -.241E-02   -.105E+03 -.740E+02 -.631E-03   0.126E+02 0.893E+01 0.144E-05   0.109E-02 0.773E-03 0.472E-03
   -.920E+02 -.650E+02 -.218E-02   0.105E+03 0.740E+02 0.784E-03   -.126E+02 -.893E+01 -.144E-05   -.901E-03 -.637E-03 -.350E-03
   -.460E+02 0.650E+02 -.797E+02   0.523E+02 -.740E+02 0.906E+02   -.631E+01 0.893E+01 -.109E+02   -.552E-03 0.352E-03 -.956E-03
   -.460E+02 0.650E+02 -.797E+02   0.523E+02 -.740E+02 0.906E+02   -.631E+01 0.893E+01 -.109E+02   -.683E-03 0.387E-03 -.118E-02
   0.460E+02 -.650E+02 0.797E+02   -.523E+02 0.740E+02 -.906E+02   0.631E+01 -.893E+01 0.109E+02   0.553E-03 -.351E-03 0.957E-03
   0.460E+02 -.650E+02 -.797E+02   -.523E+02 0.740E+02 0.906E+02   0.631E+01 -.893E+01 -.109E+02   0.148E-03 -.637E-03 -.956E-03
   0.920E+02 0.650E+02 -.241E-02   -.105E+03 -.740E+02 -.784E-03   0.126E+02 0.893E+01 0.144E-05   0.902E-03 0.638E-03 0.352E-03
   -.920E+02 -.650E+02 -.227E-02   0.105E+03 0.740E+02 0.631E-03   -.126E+02 -.893E+01 -.144E-05   -.109E-02 -.773E-03 -.473E-03
   0.460E+02 -.650E+02 -.797E+02   -.523E+02 0.740E+02 0.906E+02   0.631E+01 -.893E+01 -.109E+02   0.137E-03 -.773E-03 -.118E-02
 -----------------------------------------------------------------------------------------------
   -.135E-01 -.126E-02 -.233E-01   -.639E-13 -.284E-13 0.128E-12   0.888E-14 0.000E+00 -.178E-14   0.161E-05 0.124E-05 0.278E-05
 
 
 POSITION                                       TOTAL-FORCE (eV/Angst)
 -----------------------------------------------------------------------------------
      5.50739      1.63901      5.85618         0.001983     -0.000701      0.000000
      6.69828      4.73640     11.60176         0.000992      0.000701      0.001718
      6.69828      4.73640      7.91886         0.000992      0.000701     -0.001718
      5.63512      1.72932      9.76031         0.000000     -0.002104     -0.000000
      2.31790      1.63901      7.69763        -0.000992     -0.000701      0.001718
      3.38107      4.64609      5.85618        -0.000000      0.002104      0.000000
      2.31790      1.63901      4.01473        -0.000992     -0.000701     -0.001718
      3.50879      4.73640      9.76031        -0.001983      0.000701     -0.000000
      6.49941      2.76232      8.26329        -0.000876      0.001239      0.001517
      4.24537      1.16847      4.35917        -0.000876      0.001239      0.001517
      4.77081      5.20693      8.26329         0.000876     -0.001239      0.001517
      3.90652      2.76232      9.76031         0.001752      0.001239      0.000000
      7.36371      5.20693      9.76031        -0.001752     -0.001239     -0.000000
      6.49941      2.76232     11.25732        -0.000876      0.001239     -0.001517
      4.24537      1.16847      7.35320        -0.000876      0.001239     -0.001517
      2.51677      3.61308      4.35917         0.000876     -0.001239      0.001517
      4.77081      5.20693     11.25732         0.000876     -0.001239     -0.001517
      1.65247      1.16847      5.85618         0.001752      0.001239      0.000000
      5.10967      3.61308      5.85618        -0.001752     -0.001239     -0.000000
      2.51677      3.61308      7.35320         0.000876     -0.001239     -0.001517
 -----------------------------------------------------------------------------------
    total drift:                               -0.013456     -0.001256     -0.023307


--------------------------------------------------------------------------------------------------------



  FREE ENERGIE OF THE ION-ELECTRON SYSTEM (eV)
  ---------------------------------------------------
  free  energy   TOTEN  =      -123.60599398 eV

  energy  without entropy=     -123.60599398  energy(sigma->0) =     -123.60599398
 


--------------------------------------------------------------------------------------------------------


    POTLOK:  cpu time      0.1529: real time      0.1537


--------------------------------------------------------------------------------------------------------


     LOOP+:  cpu time     25.6830: real time     27.3862
    4ORBIT:  cpu time      0.0000: real time      0.0000



 total charge

# of ion       s       p       d       tot
------------------------------------------
    1        1.232   0.915   0.120   2.267
    2        1.232   0.915   0.120   2.267
    3        1.232   0.915   0.120   2.267
    4        1.232   0.915   0.120   2.267
    5        1.232   0.915   0.120   2.267
    6        1.232   0.915   0.120   2.267
    7        1.232   0.915   0.120   2.267
    8        1.232   0.915   0.120   2.267
    9        1.570   3.461   0.000   5.032
   10        1.570   3.461   0.000   5.032
   11        1.570   3.461   0.000   5.032
   12        1.570   3.461   0.000   5.032
   13        1.570   3.461   0.000   5.032
   14        1.570   3.461   0.000   5.032
   15        1.570   3.461   0.000   5.032
   16        1.570   3.461   0.000   5.032
   17        1.570   3.461   0.000   5.032
   18        1.570   3.461   0.000   5.032
   19        1.570   3.461   0.000   5.032
   20        1.570   3.461   0.000   5.032
--------------------------------------------------
tot         28.703  48.851   0.959  78.513
 
 BZINTS: Fermi energy:    4.264599;  112.000000 electrons
         Band energy:-0.215583E+03;  BLOECHL correction:    0.000000

 total amount of memory used by VASP MPI-rank0    44943. kBytes
=======================================================================

   base      :      30000. kBytes
   nonlr-proj:       3641. kBytes
   fftplans  :       2091. kBytes
   grid      :       3174. kBytes
   one-center:         24. kBytes
   wavefun   :       6013. kBytes
 
  
  
 General timing and accounting informations for this job:
 ========================================================
  
                  Total CPU time used (sec):       45.516
                            User time (sec):       44.249
                          System time (sec):        1.267
                         Elapsed time (sec):       50.224
  
                   Maximum memory used (kb):      253136.
                   Average memory used (kb):          N/A
  
                          Minor page faults:        53626
                          Major page faults:          279
                 Voluntary context switches:         4655
