PROCAR lm decomposed
# of k-points:   29         # of bands:   72         # of ions:   20

 k-point     1 :    0.00000000 0.00000000 0.00000000     weight = 0.00195312

band     1 # energy  -14.36972066 # occ.  2.00000000
 
ion      s     py     pz     px    dxy    dyz    dz2    dxz  x2-y2    tot
    1  0.012  0.000  0.000  0.002  0.000  0.000  0.000  0.000  0.000  0.014
    2  0.012  0.000  0.001  0.000  0.000  0.000  0.000  0.000  0.000  0.014
    3  0.012  0.000  0.001  0.000  0.000  0.000  0.000  0.000  0.000  0.014
    4  0.012  0.002  0.000  0.000  0.000  0.000  0.000  0.000  0.000  0.014
    5  0.012  0.000  0.001  0.000  0.000  0.000  0.000  0.000  0.000  0.014
    6  0.012  0.002  0.000  0.000  0.000  0.000  0.000  0.000  0.000  0.014
    7  0.012  0.000  0.001  0.000  0.000  0.000  0.000  0.000  0.000  0.014
    8  0.012  0.000  0.000  0.002  0.000  0.000  0.000  0.000  0.000  0.014
    9  0.052  0.000  0.000  0.000  0.000  0.000  0.000  0.000  0.000  0.052
   10  0.052  0.000  0.000  0.000  0.000  0.000  0.000  0.000  0.000  0.052
   11  0.052  0.000  0.000  0.000  0.000  0.000  0.000  0.000  0.000  0.052
   12  0.052  0.000  0.000  0.000  0.000  0.000  0.000  0.000  0.000  0.052
   13  0.052  0.000  0.000  0.000  0.000  0.000  0.000  0.000  0.000  0.052
   14  0.052  0.000  0.000  0.000  0.000  0.000  0.000  0.000  0.000  0.052
   15  0.052  0.000  0.000  0.000  0.000  0.000  0.000  0.000  0.000  0.052
   16  0.052  0.000  0.000  0.000  0.000  0.000  0.000  0.000  0.000  0.052
   17  0.052  0.000  0.000  0.000  0.000  0.000  0.000  0.000  0.000  0.052
   18  0.052  0.000  0.000  0.000  0.000  0.000  0.000  0.000  0.000  0.052
   19  0.052  0.000  0.000  0.000  0.000  0.000  0.000  0.000  0.000  0.052
   20  0.052  0.000  0.000  0.000  0.000  0.000  0.000  0.000  0.000  0.052
tot    0.721  0.007  0.007  0.007  0.000  0.000  0.000  0.000  0.000  0.741
 
band     2 # energy  -13.46723478 # occ.  2.00000000
 
ion      s     py     pz     px    dxy    dyz    dz2    dxz  x2-y2    tot
    1  0.010  0.000  0.000  0.003  0.000  0.000  0.000  0.000  0.000  0.013
    2  0.010  0.000  0.002  0.001  0.000  0.000  0.000  0.000  0.000  0.013
    3  0.010  0.000  0.002  0.001  0.000  0.000  0.000  0.000  0.000  0.013
    4  0.010  0.003  0.000  0.000  0.000  0.000  0.000  0.000  0.000  0.013
    5  0.010  0.000  0.002  0.001  0.000  0.000  0.000  0.000  0.000  0.013
    6  0.010  0.003  0.000  0.000  0.000  0.000  0.000  0.000  0.000  0.013
    7  0.010  0.000  0.002  0.001  0.000  0.000  0.000  0.000  0.000  0.013
    8  0.010  0.000  0.000  0.003  0.000  0.000  0.000  0.000  0.000  0.013
    9  0.057  0.000  0.000  0.000  0.000  0.000  0.000  0.000  0.000  0.057
   10  0.057  0.000  0.000  0.000  0.000  0.000  0.000  0.000  0.000  0.057
   11  0.057  0.000  0.000  0.000  0.000  0.000  0.000  0.000  0.000  0.057
   12  0.057  0.000  0.000  0.001  0.000  0.000  0.000  0.000  0.000  0.057
   13  0.057  0.000  0.000  0.001  0.000  0.000  0.000  0.000  0.000  0.057
   14  0.057  0.000  0.000  0.000  0.000  0.000  0.000  0.000  0.000  0.057
   15  0.057  0.000  0.000  0.000  0.000  0.000  0.000  0.000  0.000  0.057
   16  0.057  0.000  0.000  0.000  0.000  0.000  0.000  0.000  0.000  0.057
   17  0.057  0.000  0.000  0.000  0.000  0.000  0.000  0.000  0.000  0.057
   18  0.057  0.000  0.000  0.001  0.000  0.000  0.000  0.000  0.000  0.057
   19  0.057  0.000  0.000  0.001  0.000  0.000  0.000  0.000  0.000  0.057
   20  0.057  0.000  0.000  0.000  0.000  0.000  0.000  0.000  0.000  0.057
tot    0.759  0.011  0.011  0.011  0.000  0.000  0.000  0.000  0.000  0.791
 
band     3 # energy  -13.07370272 # occ.  2.00000000
 
ion      s     py     pz     px    dxy    dyz    dz2    dxz  x2-y2    tot
    1  0.010  0.000  0.000  0.002  0.000  0.000  0.000  0.000  0.000  0.013
    2  0.000  0.002  0.000  0.000  0.000  0.000  0.000  0.000  0.001  0.003
    3  0.000  0.001  0.000  0.001  0.000  0.000  0.000  0.000  0.001  0.003
    4  0.015  0.002  0.000  0.000  0.000  0.000  0.000  0.000  0.000  0.018
    5  0.000  0.001  0.000  0.001  0.000  0.000  0.000  0.000  0.001  0.003
    6  0.015  0.002  0.000  0.000  0.000  0.000  0.000  0.000  0.000  0.018
    7  0.000  0.002  0.000  0.000  0.000  0.000  0.000  0.000  0.001  0.003
    8  0.010  0.000  0.000  0.002  0.000  0.000  0.000  0.000  0.000  0.013
    9  0.072  0.000  0.000  0.000  0.000  0.000  0.000  0.000  0.000  0.073
   10  0.072  0.000  0.000  0.000  0.000  0.000  0.000  0.000  0.000  0.073
   11  0.102  0.000  0.000  0.000  0.000  0.000  0.000  0.000  0.000  0.102
   12  0.003  0.000  0.000  0.000  0.000  0.000  0.000  0.000  0.000  0.004
   13  0.003  0.000  0.000  0.000  0.000  0.000  0.000  0.000  0.000  0.003
   14  0.102  0.000  0.000  0.000  0.000  0.000  0.000  0.000  0.000  0.103
   15  0.102  0.000  0.000  0.000  0.000  0.000  0.000  0.000  0.000  0.103
   16  0.102  0.000  0.000  0.000  0.000  0.000  0.000  0.000  0.000  0.103
   17  0.072  0.000  0.000  0.000  0.000  0.000  0.000  0.000  0.000  0.072
   18  0.003  0.000  0.000  0.000  0.000  0.000  0.000  0.000  0.000  0.003
   19  0.003  0.000  0.000  0.000  0.000  0.000  0.000  0.000  0.000  0.004
   20  0.072  0.000  0.000  0.000  0.000  0.000  0.000  0.000  0.000  0.073
tot    0.760  0.012  0.003  0.009  0.001  0.000  0.001  0.000  0.003  0.790
 
band     4 # energy  -13.07370207 # occ.  2.00000000
 
ion      s     py     pz     px    dxy    dyz    dz2    dxz  x2-y2    tot
    1  0.007  0.001  0.001  0.000  0.000  0.000  0.000  0.000  0.000  0.010
    2  0.000  0.000  0.001  0.001  0.000  0.000  0.001  0.000  0.000  0.003
    3  0.017  0.000  0.002  0.000  0.000  0.000  0.000  0.000  0.000  0.019
    4  0.002  0.000  0.001  0.001  0.000  0.000  0.000  0.000  0.000  0.005
    5  0.017  0.000  0.002  0.000  0.000  0.000  0.000  0.000  0.000  0.019
    6  0.002  0.000  0.001  0.001  0.000  0.000  0.000  0.000  0.000  0.005
    7  0.000  0.000  0.001  0.001  0.000  0.000  0.001  0.000  0.000  0.003
    8  0.007  0.001  0.001  0.000  0.000  0.000  0.000  0.000  0.000  0.010
    9  0.047  0.001  0.000  0.000  0.000  0.000  0.000  0.000  0.000  0.048
   10  0.047  0.000  0.000  0.000  0.000  0.000  0.000  0.000  0.000  0.048
   11  0.015  0.000  0.000  0.001  0.000  0.000  0.000  0.000  0.000  0.015
   12  0.115  0.000  0.000  0.000  0.000  0.000  0.000  0.000  0.000  0.116
   13  0.115  0.000  0.000  0.000  0.000  0.000  0.000  0.000  0.000  0.116
   14  0.015  0.000  0.000  0.000  0.000  0.000  0.000  0.000  0.000  0.015
   15  0.015  0.000  0.000  0.001  0.000  0.000  0.000  0.000  0.000  0.016
   16  0.015  0.000  0.000  0.000  0.000  0.000  0.000  0.000  0.000  0.015
   17  0.047  0.000  0.000  0.000  0.000  0.000  0.000  0.000  0.000  0.047
   18  0.115  0.000  0.000  0.000  0.000  0.000  0.000  0.000  0.000  0.116
   19  0.115  0.000  0.000  0.000  0.000  0.000  0.000  0.000  0.000  0.116
   20  0.047  0.001  0.000  0.000  0.000  0.000  0.000  0.000  0.000  0.048
tot    0.760  0.006  0.010  0.008  0.001  0.001  0.001  0.001  0.001  0.790
 
band     5 # energy  -13.07369270 # occ.  2.00000000
 
ion      s     py     pz     px    dxy    dyz    dz2    dxz  x2-y2    tot
    1  0.002  0.001  0.001  0.000  0.000  0.000  0.000  0.000  0.000  0.005
    2  0.019  0.000  0.002  0.001  0.000  0.000  0.000  0.000  0.000  0.022
    3  0.002  0.001  0.000  0.001  0.000  0.000  0.001  0.000  0.000  0.005
    4  0.002  0.000  0.001  0.000  0.000  0.000  0.000  0.000  0.000  0.005
    5  0.002  0.001  0.000  0.001  0.000  0.000  0.001  0.000  0.000  0.005
    6  0.002  0.000  0.001  0.000  0.000  0.000  0.000  0.000  0.000  0.005
    7  0.019  0.000  0.002  0.001  0.000  0.000  0.000  0.000  0.000  0.022
    8  0.002  0.001  0.001  0.000  0.000  0.000  0.000  0.000  0.000  0.005
    9  0.058  0.000  0.000  0.000  0.000  0.000  0.000  0.000  0.000  0.058
   10  0.058  0.000  0.000  0.001  0.000  0.000  0.000  0.000  0.000  0.059
   11  0.060  0.000  0.000  0.000  0.000  0.000  0.000  0.000  0.000  0.061
   12  0.059  0.000  0.000  0.000  0.000  0.000  0.000  0.000  0.000  0.059
   13  0.059  0.000  0.000  0.000  0.000  0.000  0.000  0.000  0.000  0.059
   14  0.060  0.001  0.000  0.000  0.000  0.000  0.000  0.000  0.000  0.061
   15  0.060  0.000  0.000  0.000  0.000  0.000  0.000  0.000  0.000  0.061
   16  0.060  0.001  0.000  0.000  0.000  0.000  0.000  0.000  0.000  0.061
   17  0.058  0.000  0.000  0.001  0.000  0.000  0.000  0.000  0.000  0.059
   18  0.059  0.000  0.000  0.000  0.000  0.000  0.000  0.000  0.000  0.060
   19  0.059  0.000  0.000  0.000  0.000  0.000  0.000  0.000  0.000  0.059
   20  0.058  0.000  0.000  0.000  0.000  0.000  0.000  0.000  0.000  0.058
tot    0.760  0.006  0.011  0.007  0.000  0.001  0.001  0.002  0.000  0.790
 
band     6 # energy  -13.03908466 # occ.  2.00000000
 
ion      s     py     pz     px    dxy    dyz    dz2    dxz  x2-y2    tot
    1  0.006  0.001  0.000  0.003  0.000  0.000  0.000  0.000  0.000  0.010
    2  0.000  0.003  0.000  0.001  0.000  0.000  0.000  0.000  0.000  0.005
    3  0.000  0.003  0.000  0.002  0.000  0.000  0.000  0.000  0.000  0.005
    4  0.008  0.002  0.000  0.001  0.000  0.000  0.000  0.000  0.000  0.012
    5  0.000  0.003  0.000  0.002  0.000  0.000  0.000  0.000  0.000  0.005
    6  0.008  0.002  0.000  0.001  0.000  0.000  0.000  0.000  0.000  0.012
    7  0.000  0.003  0.000  0.001  0.000  0.000  0.000  0.000  0.000  0.005
    8  0.006  0.001  0.000  0.003  0.000  0.000  0.000  0.000  0.000  0.010
    9  0.078  0.000  0.000  0.000  0.000  0.000  0.000  0.000  0.000  0.078
   10  0.078  0.000  0.000  0.000  0.000  0.000  0.000  0.000  0.000  0.078
   11  0.101  0.000  0.000  0.000  0.000  0.000  0.000  0.000  0.000  0.102
   12  0.002  0.000  0.000  0.000  0.000  0.000  0.000  0.000  0.000  0.002
   13  0.002  0.000  0.000  0.000  0.000  0.000  0.000  0.000  0.000  0.002
   14  0.101  0.000  0.000  0.000  0.000  0.000  0.000  0.000  0.000  0.102
   15  0.101  0.000  0.000  0.000  0.000  0.000  0.000  0.000  0.000  0.102
   16  0.101  0.000  0.000  0.000  0.000  0.000  0.000  0.000  0.000  0.102
   17  0.078  0.000  0.000  0.000  0.000  0.000  0.000  0.000  0.000  0.078
   18  0.002  0.000  0.000  0.000  0.000  0.000  0.000  0.000  0.000  0.002
   19  0.002  0.000  0.000  0.000  0.000  0.000  0.000  0.000  0.000  0.002
   20  0.078  0.000  0.000  0.000  0.000  0.000  0.000  0.000  0.000  0.078
tot    0.752  0.019  0.004  0.014  0.001  0.000  0.000  0.000  0.002  0.792
 
band     7 # energy  -13.03908428 # occ.  2.00000000
 
ion      s     py     pz     px    dxy    dyz    dz2    dxz  x2-y2    tot
    1  0.004  0.002  0.001  0.000  0.000  0.000  0.000  0.000  0.000  0.008
    2  0.000  0.001  0.001  0.002  0.000  0.000  0.000  0.000  0.000  0.005
    3  0.010  0.000  0.003  0.000  0.000  0.000  0.000  0.000  0.000  0.013
    4  0.002  0.000  0.001  0.002  0.000  0.000  0.000  0.000  0.000  0.006
    5  0.010  0.000  0.003  0.000  0.000  0.000  0.000  0.000  0.000  0.013
    6  0.002  0.000  0.001  0.002  0.000  0.000  0.000  0.000  0.000  0.006
    7  0.000  0.001  0.001  0.002  0.000  0.000  0.000  0.000  0.000  0.005
    8  0.004  0.002  0.001  0.000  0.000  0.000  0.000  0.000  0.000  0.008
    9  0.044  0.000  0.000  0.000  0.000  0.000  0.000  0.000  0.000  0.044
   10  0.044  0.000  0.000  0.000  0.000  0.000  0.000  0.000  0.000  0.044
   11  0.020  0.000  0.000  0.000  0.000  0.000  0.000  0.000  0.000  0.020
   12  0.117  0.000  0.000  0.000  0.000  0.000  0.000  0.000  0.000  0.118
   13  0.117  0.000  0.000  0.000  0.000  0.000  0.000  0.000  0.000  0.118
   14  0.020  0.000  0.000  0.000  0.000  0.000  0.000  0.000  0.000  0.020
   15  0.019  0.000  0.000  0.000  0.000  0.000  0.000  0.000  0.000  0.020
   16  0.019  0.000  0.000  0.000  0.000  0.000  0.000  0.000  0.000  0.020
   17  0.044  0.000  0.000  0.000  0.000  0.000  0.000  0.000  0.000  0.044
   18  0.117  0.000  0.000  0.000  0.000  0.000  0.000  0.000  0.000  0.118
   19  0.117  0.000  0.000  0.000  0.000  0.000  0.000  0.000  0.000  0.118
   20  0.044  0.000  0.000  0.000  0.000  0.000  0.000  0.000  0.000  0.044
tot    0.752  0.009  0.015  0.012  0.001  0.000  0.001  0.001  0.000  0.792
 
band     8 # energy  -13.03907418 # occ.  2.00000000
 
ion      s     py     pz     px    dxy    dyz    dz2    dxz  x2-y2    tot
    1  0.001  0.001  0.003  0.000  0.000  0.000  0.000  0.000  0.000  0.006
    2  0.011  0.000  0.002  0.001  0.000  0.000  0.000  0.000  0.000  0.014
    3  0.001  0.001  0.000  0.003  0.000  0.000  0.000  0.000  0.000  0.006
    4  0.001  0.000  0.003  0.001  0.000  0.000  0.000  0.000  0.000  0.006
    5  0.001  0.001  0.000  0.003  0.000  0.000  0.000  0.000  0.000  0.006
    6  0.001  0.000  0.003  0.001  0.000  0.000  0.000  0.000  0.000  0.006
    7  0.011  0.000  0.002  0.001  0.000  0.000  0.000  0.000  0.000  0.014
    8  0.001  0.001  0.003  0.000  0.000  0.000  0.000  0.000  0.000  0.006
    9  0.059  0.000  0.000  0.000  0.000  0.000  0.000  0.000  0.000  0.060
   10  0.059  0.000  0.000  0.000  0.000  0.000  0.000  0.000  0.000  0.059
   11  0.060  0.000  0.000  0.000  0.000  0.000  0.000  0.000  0.000  0.060
   12  0.062  0.000  0.000  0.000  0.000  0.000  0.000  0.000  0.000  0.062
   13  0.062  0.000  0.000  0.000  0.000  0.000  0.000  0.000  0.000  0.062
   14  0.060  0.000  0.000  0.000  0.000  0.000  0.000  0.000  0.000  0.060
   15  0.060  0.000  0.000  0.000  0.000  0.000  0.000  0.000  0.000  0.060
   16  0.060  0.000  0.000  0.000  0.000  0.000  0.000  0.000  0.000  0.060
   17  0.059  0.000  0.000  0.000  0.000  0.000  0.000  0.000  0.000  0.060
   18  0.061  0.000  0.000  0.000  0.000  0.000  0.000  0.000  0.000  0.062
   19  0.061  0.000  0.000  0.000  0.000  0.000  0.000  0.000  0.000  0.062
   20  0.059  0.000  0.000  0.000  0.000  0.000  0.000  0.000  0.000  0.059
tot    0.752  0.009  0.017  0.010  0.000  0.001  0.001  0.001  0.000  0.792
 
band     9 # energy  -12.80287739 # occ.  2.00000000
 
ion      s     py     pz     px    dxy    dyz    dz2    dxz  x2-y2    tot
    1  0.000  0.000  0.005  0.000  0.000  0.000  0.000  0.001  0.000  0.005
    2  0.000  0.003  0.000  0.002  0.000  0.000  0.000  0.000  0.001  0.005
    3  0.000  0.003  0.000  0.002  0.000  0.000  0.000  0.000  0.001  0.005
    4  0.000  0.000  0.005  0.000  0.000  0.000  0.000  0.000  0.000  0.005
    5  0.000  0.003  0.000  0.002  0.000  0.000  0.000  0.000  0.001  0.005
    6  0.000  0.000  0.005  0.000  0.000  0.000  0.000  0.000  0.000  0.005
    7  0.000  0.003  0.000  0.002  0.000  0.000  0.000  0.000  0.001  0.005
    8  0.000  0.000  0.005  0.000  0.000  0.000  0.000  0.001  0.000  0.005
    9  0.094  0.000  0.000  0.000  0.000  0.000  0.000  0.000  0.000  0.094
   10  0.094  0.000  0.000  0.000  0.000  0.000  0.000  0.000  0.000  0.094
   11  0.093  0.000  0.000  0.000  0.000  0.000  0.000  0.000  0.000  0.094
   12  0.000  0.000  0.000  0.000  0.000  0.000  0.000  0.000  0.000  0.000
   13  0.000  0.000  0.000  0.000  0.000  0.000  0.000  0.000  0.000  0.000
   14  0.093  0.000  0.000  0.000  0.000  0.000  0.000  0.000  0.000  0.094
   15  0.093  0.000  0.000  0.000  0.000  0.000  0.000  0.000  0.000  0.094
   16  0.093  0.000  0.000  0.000  0.000  0.000  0.000  0.000  0.000  0.094
   17  0.094  0.000  0.000  0.000  0.000  0.000  0.000  0.000  0.000  0.094
   18  0.000  0.000  0.000  0.000  0.000  0.000  0.000  0.000  0.000  0.000
   19  0.000  0.000  0.000  0.000  0.000  0.000  0.000  0.000  0.000  0.000
   20  0.094  0.000  0.000  0.000  0.000  0.000  0.000  0.000  0.000  0.094
tot    0.748  0.013  0.019  0.006  0.000  0.001  0.000  0.002  0.002  0.792
 
band    10 # energy  -12.80287710 # occ.  2.00000000
 
ion      s     py     pz     px    dxy    dyz    dz2    dxz  x2-y2    tot
    1  0.000  0.004  0.000  0.001  0.000  0.000  0.000  0.000  0.000  0.005
    2  0.000  0.001  0.002  0.002  0.000  0.000  0.000  0.000  0.000  0.005
    3  0.000  0.001  0.002  0.002  0.000  0.000  0.000  0.000  0.000  0.005
    4  0.000  0.000  0.000  0.005  0.000  0.000  0.000  0.000  0.000  0.005
    5  0.000  0.001  0.002  0.002  0.000  0.000  0.000  0.000  0.000  0.005
    6  0.000  0.000  0.000  0.005  0.000  0.000  0.000  0.000  0.000  0.005
    7  0.000  0.001  0.002  0.002  0.000  0.000  0.000  0.000  0.000  0.005
    8  0.000  0.004  0.000  0.001  0.000  0.000  0.000  0.000  0.000  0.005
    9  0.031  0.000  0.000  0.000  0.000  0.000  0.000  0.000  0.000  0.031
   10  0.031  0.000  0.000  0.000  0.000  0.000  0.000  0.000  0.000  0.031
   11  0.031  0.000  0.000  0.000  0.000  0.000  0.000  0.000  0.000  0.031
   12  0.125  0.000  0.000  0.000  0.000  0.000  0.000  0.000  0.000  0.125
   13  0.125  0.000  0.000  0.000  0.000  0.000  0.000  0.000  0.000  0.125
   14  0.031  0.000  0.000  0.000  0.000  0.000  0.000  0.000  0.000  0.031
   15  0.031  0.000  0.000  0.000  0.000  0.000  0.000  0.000  0.000  0.031
   16  0.031  0.000  0.000  0.000  0.000  0.000  0.000  0.000  0.000  0.031
   17  0.031  0.000  0.000  0.000  0.000  0.000  0.000  0.000  0.000  0.031
   18  0.125  0.000  0.000  0.000  0.000  0.000  0.000  0.000  0.000  0.125
   19  0.125  0.000  0.000  0.000  0.000  0.000  0.000  0.000  0.000  0.125
   20  0.031  0.000  0.000  0.000  0.000  0.000  0.000  0.000  0.000  0.031
tot    0.748  0.013  0.006  0.019  0.001  0.000  0.002  0.001  0.001  0.792
 
band    11 # energy  -12.26668776 # occ.  2.00000000
 
ion      s     py     pz     px    dxy    dyz    dz2    dxz  x2-y2    tot
    1  0.000  0.000  0.003  0.000  0.000  0.000  0.000  0.001  0.000  0.004
    2  0.000  0.002  0.000  0.001  0.000  0.000  0.000  0.000  0.001  0.004
    3  0.000  0.002  0.000  0.001  0.000  0.000  0.000  0.000  0.001  0.004
    4  0.000  0.000  0.003  0.000  0.000  0.001  0.000  0.000  0.000  0.004
    5  0.000  0.002  0.000  0.001  0.000  0.000  0.000  0.000  0.001  0.004
    6  0.000  0.000  0.003  0.000  0.000  0.001  0.000  0.000  0.000  0.004
    7  0.000  0.002  0.000  0.001  0.000  0.000  0.000  0.000  0.001  0.004
    8  0.000  0.000  0.003  0.000  0.000  0.000  0.000  0.001  0.000  0.004
    9  0.096  0.000  0.000  0.000  0.000  0.000  0.000  0.000  0.000  0.096
   10  0.096  0.000  0.000  0.000  0.000  0.000  0.000  0.000  0.000  0.096
   11  0.102  0.000  0.000  0.000  0.000  0.000  0.000  0.000  0.000  0.102
   12  0.000  0.000  0.000  0.000  0.000  0.000  0.000  0.000  0.000  0.000
   13  0.000  0.000  0.000  0.000  0.000  0.000  0.000  0.000  0.000  0.000
   14  0.102  0.000  0.000  0.000  0.000  0.000  0.000  0.000  0.000  0.102
   15  0.102  0.000  0.000  0.000  0.000  0.000  0.000  0.000  0.000  0.102
   16  0.102  0.000  0.000  0.000  0.000  0.000  0.000  0.000  0.000  0.102
   17  0.096  0.000  0.000  0.000  0.000  0.000  0.000  0.000  0.000  0.096
   18  0.000  0.000  0.000  0.000  0.000  0.000  0.000  0.000  0.000  0.000
   19  0.000  0.000  0.000  0.000  0.000  0.000  0.000  0.000  0.000  0.000
   20  0.096  0.000  0.000  0.000  0.000  0.000  0.000  0.000  0.000  0.096
tot    0.790  0.009  0.013  0.004  0.000  0.002  0.000  0.003  0.004  0.824
 
band    12 # energy  -12.26668758 # occ.  2.00000000
 
ion      s     py     pz     px    dxy    dyz    dz2    dxz  x2-y2    tot
    1  0.000  0.003  0.000  0.000  0.000  0.000  0.000  0.000  0.001  0.004
    2  0.000  0.001  0.001  0.001  0.000  0.000  0.001  0.000  0.000  0.004
    3  0.000  0.001  0.001  0.001  0.000  0.000  0.001  0.000  0.000  0.004
    4  0.000  0.000  0.000  0.003  0.001  0.000  0.000  0.000  0.000  0.004
    5  0.000  0.001  0.001  0.001  0.000  0.000  0.001  0.000  0.000  0.004
    6  0.000  0.000  0.000  0.003  0.001  0.000  0.000  0.000  0.000  0.004
    7  0.000  0.001  0.001  0.001  0.000  0.000  0.001  0.000  0.000  0.004
    8  0.000  0.003  0.000  0.000  0.000  0.000  0.000  0.000  0.001  0.004
    9  0.036  0.000  0.000  0.000  0.000  0.000  0.000  0.000  0.000  0.036
   10  0.036  0.000  0.000  0.000  0.000  0.000  0.000  0.000  0.000  0.036
   11  0.030  0.000  0.000  0.000  0.000  0.000  0.000  0.000  0.000  0.030
   12  0.132  0.000  0.000  0.000  0.000  0.000  0.000  0.000  0.000  0.132
   13  0.132  0.000  0.000  0.000  0.000  0.000  0.000  0.000  0.000  0.132
   14  0.030  0.000  0.000  0.000  0.000  0.000  0.000  0.000  0.000  0.030
   15  0.030  0.000  0.000  0.000  0.000  0.000  0.000  0.000  0.000  0.030
   16  0.030  0.000  0.000  0.000  0.000  0.000  0.000  0.000  0.000  0.030
   17  0.036  0.000  0.000  0.000  0.000  0.000  0.000  0.000  0.000  0.036
   18  0.132  0.000  0.000  0.000  0.000  0.000  0.000  0.000  0.000  0.132
   19  0.132  0.000  0.000  0.000  0.000  0.000  0.000  0.000  0.000  0.132
   20  0.036  0.000  0.000  0.000  0.000  0.000  0.000  0.000  0.000  0.036
tot    0.790  0.009  0.004  0.013  0.002  0.000  0.004  0.001  0.001  0.824
 
band    13 # energy   -4.39827952 # occ.  2.00000000
 
ion      s     py     pz     px    dxy    dyz    dz2    dxz  x2-y2    tot
    1  0.017  0.001  0.003  0.001  0.000  0.000  0.000  0.000  0.000  0.022
    2  0.156  0.000  0.001  0.000  0.000  0.000  0.000  0.000  0.000  0.158
    3  0.018  0.001  0.002  0.001  0.000  0.000  0.000  0.000  0.000  0.022
    4  0.017  0.000  0.003  0.001  0.000  0.000  0.000  0.000  0.000  0.021
    5  0.018  0.001  0.002  0.001  0.000  0.000  0.000  0.000  0.000  0.022
    6  0.017  0.000  0.003  0.001  0.000  0.000  0.000  0.000  0.000  0.021
    7  0.156  0.000  0.001  0.000  0.000  0.000  0.000  0.000  0.000  0.158
    8  0.017  0.001  0.003  0.001  0.000  0.000  0.000  0.000  0.000  0.022
    9  0.001  0.001  0.001  0.001  0.000  0.000  0.000  0.000  0.000  0.004
   10  0.001  0.001  0.004  0.032  0.000  0.000  0.000  0.000  0.000  0.038
   11  0.002  0.001  0.001  0.000  0.000  0.000  0.000  0.000  0.000  0.004
   12  0.001  0.001  0.000  0.001  0.000  0.000  0.000  0.000  0.000  0.003
   13  0.001  0.001  0.035  0.001  0.000  0.000  0.000  0.000  0.000  0.039
   14  0.002  0.032  0.004  0.001  0.000  0.000  0.000  0.000  0.000  0.038
   15  0.002  0.001  0.001  0.000  0.000  0.000  0.000  0.000  0.000  0.004
   16  0.002  0.032  0.004  0.001  0.000  0.000  0.000  0.000  0.000  0.038
   17  0.001  0.001  0.004  0.032  0.000  0.000  0.000  0.000  0.000  0.038
   18  0.001  0.001  0.035  0.001  0.000  0.000  0.000  0.000  0.000  0.039
   19  0.001  0.001  0.000  0.001  0.000  0.000  0.000  0.000  0.000  0.003
   20  0.001  0.001  0.001  0.001  0.000  0.000  0.000  0.000  0.000  0.004
tot    0.434  0.074  0.107  0.080  0.000  0.000  0.000  0.001  0.000  0.697
 
band    14 # energy   -4.39825359 # occ.  2.00000000
 
ion      s     py     pz     px    dxy    dyz    dz2    dxz  x2-y2    tot
    1  0.068  0.000  0.001  0.001  0.000  0.000  0.000  0.000  0.000  0.072
    2  0.000  0.000  0.001  0.003  0.000  0.000  0.000  0.000  0.000  0.005
    3  0.130  0.000  0.000  0.002  0.000  0.000  0.000  0.000  0.000  0.132
    4  0.010  0.000  0.001  0.003  0.000  0.000  0.000  0.000  0.000  0.014
    5  0.130  0.000  0.000  0.002  0.000  0.000  0.000  0.000  0.000  0.132
    6  0.010  0.000  0.001  0.003  0.000  0.000  0.000  0.000  0.000  0.014
    7  0.000  0.000  0.001  0.003  0.000  0.000  0.000  0.000  0.000  0.005
    8  0.068  0.000  0.001  0.001  0.000  0.000  0.000  0.000  0.000  0.072
    9  0.001  0.025  0.002  0.001  0.000  0.000  0.000  0.000  0.000  0.030
   10  0.001  0.001  0.005  0.004  0.000  0.000  0.000  0.000  0.000  0.012
   11  0.000  0.000  0.010  0.039  0.000  0.000  0.000  0.000  0.000  0.049
   12  0.003  0.007  0.000  0.000  0.000  0.000  0.000  0.000  0.000  0.010
   13  0.003  0.001  0.016  0.002  0.000  0.000  0.000  0.000  0.000  0.023
   14  0.000  0.000  0.001  0.001  0.000  0.000  0.000  0.000  0.000  0.002
   15  0.000  0.000  0.010  0.039  0.000  0.000  0.000  0.000  0.000  0.049
   16  0.000  0.000  0.001  0.001  0.000  0.000  0.000  0.000  0.000  0.002
   17  0.001  0.001  0.005  0.004  0.000  0.000  0.000  0.000  0.000  0.012
   18  0.003  0.001  0.016  0.002  0.000  0.000  0.000  0.000  0.000  0.023
   19  0.003  0.007  0.000  0.000  0.000  0.000  0.000  0.000  0.000  0.010
   20  0.001  0.025  0.002  0.001  0.000  0.000  0.000  0.000  0.000  0.030
tot    0.434  0.071  0.076  0.114  0.000  0.000  0.001  0.000  0.000  0.697
 
band    15 # energy   -4.39825330 # occ.  2.00000000
 
ion      s     py     pz     px    dxy    dyz    dz2    dxz  x2-y2    tot
    1  0.071  0.003  0.000  0.000  0.000  0.000  0.000  0.000  0.000  0.074
    2  0.000  0.003  0.000  0.001  0.000  0.000  0.000  0.000  0.000  0.005
    3  0.009  0.003  0.000  0.001  0.000  0.000  0.000  0.000  0.000  0.013
    4  0.129  0.002  0.000  0.001  0.000  0.000  0.000  0.000  0.000  0.131
    5  0.009  0.003  0.000  0.001  0.000  0.000  0.000  0.000  0.000  0.013
    6  0.129  0.002  0.000  0.001  0.000  0.000  0.000  0.000  0.000  0.131
    7  0.000  0.003  0.000  0.001  0.000  0.000  0.000  0.000  0.000  0.005
    8  0.071  0.003  0.000  0.000  0.000  0.000  0.000  0.000  0.000  0.074
    9  0.002  0.011  0.013  0.003  0.000  0.000  0.000  0.000  0.000  0.029
   10  0.002  0.000  0.007  0.004  0.000  0.000  0.000  0.000  0.000  0.012
   11  0.003  0.001  0.006  0.001  0.000  0.000  0.000  0.000  0.000  0.010
   12  0.000  0.030  0.000  0.020  0.000  0.000  0.000  0.000  0.000  0.050
   13  0.000  0.000  0.001  0.000  0.000  0.000  0.000  0.000  0.000  0.002
   14  0.003  0.005  0.012  0.003  0.000  0.000  0.000  0.000  0.000  0.023
   15  0.003  0.001  0.006  0.001  0.000  0.000  0.000  0.000  0.000  0.010
   16  0.003  0.005  0.012  0.003  0.000  0.000  0.000  0.000  0.000  0.023
   17  0.002  0.000  0.007  0.004  0.000  0.000  0.000  0.000  0.000  0.012
   18  0.000  0.000  0.001  0.000  0.000  0.000  0.000  0.000  0.000  0.002
   19  0.000  0.030  0.000  0.020  0.000  0.000  0.000  0.000  0.000  0.050
   20  0.002  0.011  0.013  0.003  0.000  0.000  0.000  0.000  0.000  0.029
tot    0.434  0.116  0.078  0.067  0.000  0.000  0.000  0.000  0.002  0.697
 
band    16 # energy   -3.65191320 # occ.  2.00000000
 
ion      s     py     pz     px    dxy    dyz    dz2    dxz  x2-y2    tot
    1  0.017  0.001  0.003  0.000  0.000  0.000  0.000  0.001  0.000  0.023
    2  0.154  0.000  0.000  0.000  0.000  0.000  0.000  0.000  0.000  0.155
    3  0.018  0.001  0.002  0.002  0.000  0.000  0.000  0.000  0.000  0.023
    4  0.017  0.000  0.003  0.001  0.000  0.000  0.000  0.000  0.000  0.022
    5  0.018  0.001  0.002  0.002  0.000  0.000  0.000  0.000  0.000  0.023
    6  0.017  0.000  0.003  0.001  0.000  0.000  0.000  0.000  0.000  0.022
    7  0.154  0.000  0.000  0.000  0.000  0.000  0.000  0.000  0.000  0.155
    8  0.017  0.001  0.003  0.000  0.000  0.000  0.000  0.001  0.000  0.023
    9  0.005  0.000  0.000  0.001  0.000  0.000  0.000  0.000  0.000  0.006
   10  0.005  0.000  0.009  0.029  0.000  0.000  0.000  0.000  0.000  0.044
   11  0.005  0.001  0.000  0.000  0.000  0.000  0.000  0.000  0.000  0.007
   12  0.005  0.000  0.001  0.000  0.000  0.000  0.000  0.000  0.000  0.006
   13  0.005  0.000  0.038  0.000  0.000  0.000  0.000  0.000  0.000  0.044
   14  0.005  0.026  0.009  0.003  0.000  0.000  0.000  0.000  0.000  0.043
   15  0.005  0.001  0.000  0.000  0.000  0.000  0.000  0.000  0.000  0.007
   16  0.005  0.026  0.009  0.003  0.000  0.000  0.000  0.000  0.000  0.043
   17  0.005  0.000  0.009  0.029  0.000  0.000  0.000  0.000  0.000  0.044
   18  0.005  0.000  0.038  0.000  0.000  0.000  0.000  0.000  0.000  0.044
   19  0.005  0.000  0.001  0.000  0.000  0.000  0.000  0.000  0.000  0.006
   20  0.005  0.000  0.000  0.001  0.000  0.000  0.000  0.000  0.000  0.006
tot    0.476  0.056  0.136  0.072  0.000  0.001  0.001  0.002  0.000  0.745
 
band    17 # energy   -3.65188225 # occ.  2.00000000
 
ion      s     py     pz     px    dxy    dyz    dz2    dxz  x2-y2    tot
    1  0.062  0.001  0.002  0.001  0.000  0.000  0.000  0.000  0.000  0.066
    2  0.000  0.000  0.002  0.003  0.000  0.000  0.001  0.000  0.000  0.006
    3  0.130  0.000  0.000  0.001  0.000  0.000  0.000  0.000  0.000  0.132
    4  0.013  0.000  0.002  0.003  0.000  0.000  0.000  0.000  0.000  0.018
    5  0.130  0.000  0.000  0.001  0.000  0.000  0.000  0.000  0.000  0.132
    6  0.013  0.000  0.002  0.003  0.000  0.000  0.000  0.000  0.000  0.018
    7  0.000  0.000  0.002  0.003  0.000  0.000  0.001  0.000  0.000  0.006
    8  0.062  0.001  0.002  0.001  0.000  0.000  0.000  0.000  0.000  0.066
    9  0.005  0.021  0.009  0.001  0.000  0.000  0.000  0.000  0.000  0.036
   10  0.005  0.001  0.004  0.005  0.000  0.000  0.000  0.000  0.000  0.015
   11  0.001  0.000  0.014  0.038  0.000  0.000  0.000  0.000  0.000  0.053
   12  0.010  0.002  0.001  0.001  0.000  0.000  0.000  0.000  0.000  0.013
   13  0.010  0.000  0.018  0.000  0.000  0.000  0.000  0.000  0.000  0.028
   14  0.001  0.001  0.002  0.000  0.000  0.000  0.000  0.000  0.000  0.004
   15  0.001  0.000  0.014  0.038  0.000  0.000  0.000  0.000  0.000  0.053
   16  0.001  0.001  0.002  0.000  0.000  0.000  0.000  0.000  0.000  0.004
   17  0.005  0.001  0.004  0.005  0.000  0.000  0.000  0.000  0.000  0.015
   18  0.010  0.000  0.018  0.000  0.000  0.000  0.000  0.000  0.000  0.028
   19  0.010  0.002  0.001  0.001  0.000  0.000  0.000  0.000  0.000  0.013
   20  0.005  0.021  0.009  0.001  0.000  0.000  0.000  0.000  0.000  0.036
tot    0.476  0.053  0.103  0.108  0.001  0.001  0.002  0.001  0.000  0.745
 
band    18 # energy   -3.65188151 # occ.  2.00000000
 
ion      s     py     pz     px    dxy    dyz    dz2    dxz  x2-y2    tot
    1  0.075  0.003  0.000  0.000  0.000  0.000  0.000  0.000  0.000  0.078
    2  0.000  0.004  0.000  0.001  0.000  0.000  0.000  0.000  0.001  0.006
    3  0.006  0.004  0.000  0.001  0.000  0.000  0.000  0.000  0.001  0.012
    4  0.125  0.001  0.000  0.001  0.000  0.000  0.000  0.000  0.000  0.127