unknown system                          
           1
     6.762138    0.000000    3.904123
     2.254046    6.375405    3.904123
    -0.000000   -0.000000    7.808245
   Sb   O 
     8    12
Direct configuration=     1
   0.72875133  0.25708255  0.25708255
   0.74291745  0.74291745  0.74291745
   0.74291745  0.74291745  0.27124867
   0.74291745  0.27124867  0.74291745
   0.25708255  0.25708255  0.72875133
   0.25708255  0.72875133  0.25708255
   0.25708255  0.25708255  0.25708255
   0.27124867  0.74291745  0.74291745
   0.81672189  0.43327811  0.43327811
   0.56672189  0.18327811  0.18327811
   0.43327811  0.81672189  0.43327811
   0.43327811  0.43327811  0.81672189
   0.81672189  0.81672189  0.43327811
   0.81672189  0.43327811  0.81672189
   0.56672189  0.18327811  0.56672189
   0.18327811  0.56672189  0.18327811
   0.43327811  0.81672189  0.81672189
   0.18327811  0.18327811  0.56672189
   0.56672189  0.56672189  0.18327811
   0.18327811  0.56672189  0.56672189
