 vasp.6.3.0 20Jan22 (build Jan 28 2022 00:43:23) complex                        
  
 executed on             LinuxIFC date 2025.07.23  14:00:51
 running   64 mpi-ranks, with    1 threads/rank
 distrk:  each k-point on   64 cores,    1 groups
 distr:  one band on NCORE=   8 cores,    8 groups


--------------------------------------------------------------------------------------------------------


 INCAR:
   ALGO = Fast
   ICHARG = 11
   LORBIT = 11
   NEDOS = 4000
   ENCUT = 600
   ISMEAR = -5
   EDIFF = 1.0E-6
   PREC = Accurate
   NELM = 200
   MAGMOM = 20*0.6
   ISPIN = 1
   LMAXMIX = 6
   LASPH = True
   IVDW = 12
   LWAVE = .FALSE.
   LCHARG = .FALSE.
   LREAL = Auto
   NPAR = 8

 POTCAR:    PAW_PBE Bi 08Apr2002                  
 POTCAR:    PAW_PBE O 08Apr2002                   
 POTCAR:    PAW_PBE Bi 08Apr2002                  
   VRHFIN =Bi:                                                                                      
   LEXCH  = PE                                                                                      
   EATOM  =   150.8133 eV,   11.0845 Ry                                                             
                                                                                                    
   TITEL  = PAW_PBE Bi 08Apr2002                                                                    
   LULTRA =        F    use ultrasoft PP ?                                                          
   IUNSCR =        1    unscreen: 0-lin 1-nonlin 2-no                                               
   RPACOR =    2.200    partial core radius                                                         
   POMASS =  208.980; ZVAL   =    5.000    mass and valenz                                          
   RCORE  =    3.000    outmost cutoff radius                                                       
   RWIGS  =    3.090; RWIGS  =    1.635    wigner-seitz radius (au A)                               
   ENMAX  =  105.037; ENMIN  =   78.777 eV                                                          
   ICORE  =        3    local potential                                                             
   LCOR   =        T    correct aug charges                                                         
   LPAW   =        T    paw PP                                                                      
   EAUG   =  265.427                                                                                
   DEXC   =    0.000                                                                                
   RMAX   =    3.067    core radius for proj-oper                                                   
   RAUG   =    1.300    factor for augmentation sphere                                              
   RDEP   =    3.012    radius for radial grids                                                     
   RDEPT  =    2.604    core radius for aug-charge                                                  
                                                                                                    
   Atomic configuration                                                                             
   17 entries                                                                                       
     n  l   j            E        occ.                                                              
     1  0  0.50    -90639.6582   2.0000                                                             
     2  0  0.50    -16282.4667   2.0000                                                             
     2  1  1.50    -13922.8287   6.0000                                                             
     3  0  0.50     -3930.4763   2.0000                                                             
     3  1  1.50     -3256.7013   6.0000                                                             
     3  2  2.50     -2581.6169  10.0000                                                             
     4  0  0.50      -902.2614   2.0000                                                             
     4  1  1.50      -681.5915   6.0000                                                             
     4  2  2.50      -429.8249  10.0000                                                             
     4  3  3.50      -152.6004  14.0000                                                             
     5  0  0.50      -157.7156   2.0000                                                             
     5  1  1.50       -95.8054   6.0000                                                             
     5  2  2.50       -27.0806  10.0000                                                             
     6  0  0.50       -14.4732   2.0000                                                             
     6  1  1.50        -4.5702   3.0000                                                             
     6  2  2.50        -2.7212   0.0000                                                             
     5  3  2.50        -2.7212   0.0000                                                             
   Description                                                                                      
     l       E           TYP  RCUT    TYP  RCUT                                                     
     0    -14.4732299     23  3.000                                                                 
     0    -12.2452434     23  3.000                                                                 
     1     -4.5701666     23  3.000                                                                 
     1    -13.6058260     23  3.000                                                                 
     2     -2.7211652     23  3.000                                                                 
     3     -1.3605826      7  3.000                                                                 
  local pseudopotential read in
  partial core-charges read in
  partial kinetic energy density read in
  kinetic energy density of atom read in
  atomic valenz-charges read in
  non local Contribution for L=           0  read in
    real space projection operators read in
  non local Contribution for L=           0  read in
    real space projection operators read in
  non local Contribution for L=           1  read in
    real space projection operators read in
  non local Contribution for L=           1  read in
    real space projection operators read in
  non local Contribution for L=           2  read in
    real space projection operators read in
    PAW grid and wavefunctions read in
 
   number of l-projection  operators is LMAX  =           5
   number of lm-projection operators is LMMAX =          13
 
 POTCAR:    PAW_PBE O 08Apr2002                   
   VRHFIN =O: s2p4                                                                                  
   LEXCH  = PE                                                                                      
   EATOM  =   432.3788 eV,   31.7789 Ry                                                             
                                                                                                    
   TITEL  = PAW_PBE O 08Apr2002                                                                     
   LULTRA =        F    use ultrasoft PP ?                                                          
   IUNSCR =        1    unscreen: 0-lin 1-nonlin 2-no                                               
   RPACOR =    1.200    partial core radius                                                         
   POMASS =   16.000; ZVAL   =    6.000    mass and valenz                                          
   RCORE  =    1.520    outmost cutoff radius                                                       
   RWIGS  =    1.550; RWIGS  =    0.820    wigner-seitz radius (au A)                               
   ENMAX  =  400.000; ENMIN  =  300.000 eV                                                          
   ICORE  =        2    local potential                                                             
   LCOR   =        T    correct aug charges                                                         
   LPAW   =        T    paw PP                                                                      
   EAUG   =  605.392                                                                                
   DEXC   =    0.000                                                                                
   RMAX   =    1.553    core radius for proj-oper                                                   
   RAUG   =    1.300    factor for augmentation sphere                                              
   RDEP   =    1.550    radius for radial grids                                                     
   RDEPT  =    1.329    core radius for aug-charge                                                  
                                                                                                    
   Atomic configuration                                                                             
    4 entries                                                                                       
     n  l   j            E        occ.                                                              
     1  0  0.50      -514.6923   2.0000                                                             
     2  0  0.50       -23.9615   2.0000                                                             
     2  1  0.50        -9.0305   4.0000                                                             
     3  2  1.50        -9.5241   0.0000                                                             
   Description                                                                                      
     l       E           TYP  RCUT    TYP  RCUT                                                     
     0    -23.9615318     23  1.200                                                                 
     0     -9.5240782     23  1.200                                                                 
     1     -9.0304911     23  1.520                                                                 
     1      8.1634956     23  1.520                                                                 
     2     -9.5240782      7  1.500                                                                 
  local pseudopotential read in
  partial core-charges read in
  partial kinetic energy density read in
  kinetic energy density of atom read in
  atomic valenz-charges read in
  non local Contribution for L=           0  read in
    real space projection operators read in
  non local Contribution for L=           0  read in
    real space projection operators read in
  non local Contribution for L=           1  read in
    real space projection operators read in
  non local Contribution for L=           1  read in
    real space projection operators read in
    PAW grid and wavefunctions read in
 
   number of l-projection  operators is LMAX  =           4
   number of lm-projection operators is LMMAX =           8
 
 Optimization of the real space projectors (new method)

 maximal supplied QI-value         = 12.47
 optimisation between [QCUT,QGAM] = [ 12.47, 25.07] = [ 43.56,175.99] Ry 
 Optimized for a Real-space Cutoff    1.61 Angstroem

   l    n(q)    QCUT    max X(q) W(low)/X(q) W(high)/X(q)  e(spline) 
   0     12    12.472    93.365    0.49E-04    0.32E-04    0.37E-06
   0     12    12.472    75.373    0.52E-04    0.35E-04    0.40E-06
   1     12    12.472    32.978    0.22E-03    0.76E-04    0.30E-05
   1     12    12.472    35.433    0.25E-03    0.84E-04    0.33E-05
   2     11    12.472     8.108    0.40E-04    0.72E-04    0.26E-06
 WARNING: PSMAXN for non-local potential too small
          PSMAXN should be >   12.5490833729506       NTYP=           1
 Optimization of the real space projectors (new method)

 maximal supplied QI-value         = 24.76
 optimisation between [QCUT,QGAM] = [ 12.38, 25.00] = [ 42.90,175.06] Ry 
 Optimized for a Real-space Cutoff    1.16 Angstroem

   l    n(q)    QCUT    max X(q) W(low)/X(q) W(high)/X(q)  e(spline) 
   0      9    12.378    20.381    0.16E-03    0.67E-05    0.31E-06
   0      9    12.378    15.268    0.17E-03    0.81E-05    0.33E-06
   1      8    12.378     5.964    0.20E-03    0.16E-03    0.30E-06
   1      8    12.378     5.382    0.18E-03    0.14E-03    0.26E-06
  PAW_PBE Bi 08Apr2002                  :
 energy of atom  1       EATOM= -150.8133
 kinetic energy error for atom=    0.0000 (will be added to EATOM!!)
  PAW_PBE O 08Apr2002                   :
 energy of atom  2       EATOM= -432.3788
 kinetic energy error for atom=    0.0168 (will be added to EATOM!!)
 
 
 POSCAR: Bi8 O12
  positions in direct lattice
  velocities in cartesian coordinates
 exchange correlation table for  LEXCH =        8
   RHO(1)=    0.500       N(1)  =     2000
   RHO(2)=  100.500       N(2)  =     4000
 


--------------------------------------------------------------------------------------------------------


 ion  position               nearest neighbor table
   1  0.877  0.877  0.370-  18 2.15  20 2.15  19 2.15  11 2.75  10 2.75   9 2.75   2 3.91   3 3.91
                             4 3.91
   2  0.877  0.370  0.877-  16 2.15  20 2.15  15 2.15  11 2.75  12 2.75  13 2.75   1 3.91   3 3.91
                             4 3.91
   3  0.370  0.877  0.877-  17 2.15  15 2.15  19 2.15  12 2.75  10 2.75  14 2.75   2 3.91   1 3.91
                             4 3.91
   4  0.877  0.877  0.877-  16 2.15  18 2.15  17 2.15  13 2.75   9 2.75  14 2.75   1 3.91   2 3.91
                             3 3.91
   5  0.373  0.373  0.880-  12 2.15  14 2.15  13 2.15  17 2.75  16 2.75  15 2.75   6 3.91   7 3.91
                             8 3.91
   6  0.373  0.880  0.373-  10 2.15  14 2.15   9 2.15  17 2.75  18 2.75  19 2.75   5 3.91   7 3.91
                             8 3.91
   7  0.880  0.373  0.373-  11 2.15   9 2.15  13 2.15  16 2.75  18 2.75  20 2.75   6 3.91   5 3.91
                             8 3.91
   8  0.373  0.373  0.373-  10 2.15  12 2.15  11 2.15  19 2.75  15 2.75  20 2.75   5 3.91   6 3.91
                             7 3.91
   9  0.045  0.045  0.455-   7 2.15   6 2.15   4 2.75   1 2.75
  10  0.455  0.045  0.455-   6 2.15   8 2.15   3 2.75   1 2.75
  11  0.045  0.455  0.455-   7 2.15   8 2.15   1 2.75   2 2.75
  12  0.455  0.455  0.045-   5 2.15   8 2.15   3 2.75   2 2.75
  13  0.045  0.455  0.045-   5 2.15   7 2.15   4 2.75   2 2.75
  14  0.455  0.045  0.045-   5 2.15   6 2.15   4 2.75   3 2.75
  15  0.205  0.205  0.795-   3 2.15   2 2.15   8 2.75   5 2.75
  16  0.795  0.205  0.795-   2 2.15   4 2.15   7 2.75   5 2.75
  17  0.205  0.795  0.795-   3 2.15   4 2.15   5 2.75   6 2.75
  18  0.795  0.795  0.205-   1 2.15   4 2.15   7 2.75   6 2.75
  19  0.205  0.795  0.205-   1 2.15   3 2.15   8 2.75   6 2.75
  20  0.795  0.205  0.205-   1 2.15   2 2.15   8 2.75   7 2.75
 
  LATTYP: Found a face centered cubic cell.
 ALAT       =    11.1844410995
  
  Lattice vectors:
  
 A1 = (   6.8490434380,   0.0000000000,   3.9542970726)
 A2 = (   2.2830144793,   6.4573400795,   3.9542970726)
 A3 = (   0.0000000000,   0.0000000000,   7.9085941452)


Analysis of symmetry for initial positions (statically):
=====================================================================
 Subroutine PRICEL returns:
 Original cell was already a primitive cell.
 

 Routine SETGRP: Setting up the symmetry group for a 
 face centered cubic supercell.


 Subroutine GETGRP returns: Found 48 space group operations
 (whereof 24 operations were pure point group operations)
 out of a pool of 48 trial point group operations.


The static configuration has the point symmetry T_d .
 The point group associated with its full space group is O_h .


Analysis of symmetry for dynamics (positions and initial velocities):
=====================================================================
 Subroutine PRICEL returns:
 Original cell was already a primitive cell.
 

 Routine SETGRP: Setting up the symmetry group for a 
 face centered cubic supercell.


 Subroutine GETGRP returns: Found 48 space group operations
 (whereof 24 operations were pure point group operations)
 out of a pool of 48 trial point group operations.


The dynamic configuration has the point symmetry T_d .
 The point group associated with its full space group is O_h .


 Subroutine INISYM returns: Found 48 space group operations
 (whereof 24 operations are pure point group operations),
 and found     1 'primitive' translations


----------------------------------------------------------------------------------------

                                     Primitive cell                                     

  volume of cell :     349.7703

  direct lattice vectors                    reciprocal lattice vectors
     6.849043438  0.000000000  3.954297073     0.146005790 -0.051620842  0.000000000
     2.283014479  6.457340080  3.954297073     0.000000000  0.154862527  0.000000000
     0.000000000  0.000000000  7.908594145    -0.073002895 -0.051620842  0.126444724

  length of vectors
     7.908594145  7.908594145  7.908594145     0.154862527  0.154862527  0.154862527

  position of ions in fractional coordinates (direct lattice)
     0.876541118  0.876541118  0.370375635
     0.876541118  0.370375635  0.876541118
     0.370375635  0.876541118  0.876541118
     0.876541118  0.876541118  0.876541118
     0.373458882  0.373458882  0.879624365
     0.373458882  0.879624365  0.373458882
     0.879624365  0.373458882  0.373458882
     0.373458882  0.373458882  0.373458882
     0.045447505  0.045447505  0.454552495
     0.454552495  0.045447505  0.454552495
     0.045447505  0.454552495  0.454552495
     0.454552495  0.454552495  0.045447505
     0.045447505  0.454552495  0.045447505
     0.454552495  0.045447505  0.045447505
     0.204552495  0.204552495  0.795447505
     0.795447505  0.204552495  0.795447505
     0.204552495  0.795447505  0.795447505
     0.795447505  0.795447505  0.204552495
     0.204552495  0.795447505  0.204552495
     0.795447505  0.204552495  0.204552495

  ion indices of the primitive-cell ions
   primitive index   ion index
                 1           1
                 2           2
                 3           3
                 4           4
                 5           5
                 6           6
                 7           7
                 8           8
                 9           9
                10          10
                11          11
                12          12
                13          13
                14          14
                15          15
                16          16
                17          17
                18          18
                19          19
                20          20

----------------------------------------------------------------------------------------

 
 
 KPOINTS: pymatgen with grid density = 3000 / numb

Automatic generation of k-mesh.
 Grid dimensions read from file:
 generate k-points for:    8    8    8

 Generating k-lattice:

  Cartesian coordinates                     Fractional coordinates (reciprocal lattice)
     0.018250724 -0.006452605  0.000000000     0.125000000 -0.000000000  0.000000000
     0.000000000  0.019357816  0.000000000     0.000000000  0.125000000  0.000000000
    -0.009125362 -0.006452605  0.015805590     0.000000000  0.000000000  0.125000000

  Length of vectors
     0.019357816  0.019357816  0.019357816

  Shift w.r.t. Gamma in fractional coordinates (k-lattice)
     0.000000000  0.000000000  0.000000000

 TETIRR: Found     76 inequivalent tetrahedra from     3072
 
 Subroutine IBZKPT returns following result:
 ===========================================
 
 Found     29 irreducible k-points:
 
 Following reciprocal coordinates:
            Coordinates               Weight
  0.000000  0.000000  0.000000      1.000000
  0.125000 -0.000000  0.000000      8.000000
  0.250000 -0.000000  0.000000      8.000000
  0.375000  0.000000  0.000000      8.000000
  0.500000 -0.000000  0.000000      4.000000
  0.125000  0.125000  0.000000      6.000000
  0.250000  0.125000  0.000000     24.000000
  0.375000  0.125000  0.000000     24.000000
  0.500000  0.125000  0.000000     24.000000
 -0.375000  0.125000  0.000000     24.000000
 -0.250000  0.125000  0.000000     24.000000
 -0.125000  0.125000  0.000000     12.000000
  0.250000  0.250000  0.000000      6.000000
  0.375000  0.250000  0.000000     24.000000
  0.500000  0.250000  0.000000     24.000000
 -0.375000  0.250000  0.000000     24.000000
 -0.250000  0.250000  0.000000     12.000000
  0.375000  0.375000  0.000000      6.000000
  0.500000  0.375000  0.000000     24.000000
 -0.375000  0.375000  0.000000     12.000000
  0.500000  0.500000  0.000000      3.000000
  0.375000  0.250000  0.125000     24.000000
  0.500000  0.250000  0.125000     48.000000
 -0.375000  0.250000  0.125000     24.000000
  0.500000  0.375000  0.125000     24.000000
 -0.375000  0.375000  0.125000     48.000000
 -0.250000  0.375000  0.125000     24.000000
 -0.375000  0.500000  0.125000     12.000000
 -0.250000  0.500000  0.250000      6.000000
 
 Following cartesian coordinates:
            Coordinates               Weight
  0.000000  0.000000  0.000000      1.000000
  0.018251 -0.006453  0.000000      8.000000
  0.036501 -0.012905  0.000000      8.000000
  0.054752 -0.019358  0.000000      8.000000
  0.073003 -0.025810  0.000000      4.000000
  0.018251  0.012905  0.000000      6.000000
  0.036501  0.006453  0.000000     24.000000
  0.054752 -0.000000  0.000000     24.000000
  0.073003 -0.006453  0.000000     24.000000
 -0.054752  0.038716  0.000000     24.000000
 -0.036501  0.032263  0.000000     24.000000
 -0.018251  0.025810  0.000000     12.000000
  0.036501  0.025810  0.000000      6.000000
  0.054752  0.019358  0.000000     24.000000
  0.073003  0.012905  0.000000     24.000000
 -0.054752  0.058073  0.000000     24.000000
 -0.036501  0.051621  0.000000     12.000000
  0.054752  0.038716  0.000000      6.000000
  0.073003  0.032263  0.000000     24.000000
 -0.054752  0.077431  0.000000     12.000000
  0.073003  0.051621  0.000000      3.000000
  0.045627  0.012905  0.015806     24.000000
  0.063878  0.006453  0.015806     48.000000
 -0.063878  0.051621  0.015806     24.000000
  0.063878  0.025810  0.015806     24.000000
 -0.063878  0.070979  0.015806     48.000000
 -0.045627  0.064526  0.015806     24.000000
 -0.063878  0.090336  0.015806     12.000000
 -0.054752  0.077431  0.031611      6.000000
 


--------------------------------------------------------------------------------------------------------




 Dimension of arrays:
   k-points           NKPTS =     29   k-points in BZ     NKDIM =     29   number of bands    NBANDS=     72
   number of dos      NEDOS =   4000   number of ions     NIONS =     20
   non local maximal  LDIM  =      5   non local SUM 2l+1 LMDIM =     13
   total plane-waves  NPLWV = 262144
   max r-space proj   IRMAX =  13081   max aug-charges    IRDMAX=  71584
   dimension x,y,z NGX =    64 NGY =   64 NGZ =   64
   dimension x,y,z NGXF=   128 NGYF=  128 NGZF=  128
   support grid    NGXF=   128 NGYF=  128 NGZF=  128
   ions per type =               8  12
   NGX,Y,Z   is equivalent  to a cutoff of  13.45, 13.45, 13.45 a.u.
   NGXF,Y,Z  is equivalent  to a cutoff of  26.91, 26.91, 26.91 a.u.

 SYSTEM =  unknown system                          
 POSCAR =  Bi8 O12                                 

 Startparameter for this run:
   NWRITE =      2    write-flag & timer
   PREC   = accura    normal or accurate (medium, high low for compatibility)
   ISTART =      0    job   : 0-new  1-cont  2-samecut
   ICHARG =     11    charge: 1-file 2-atom 10-const
   ISPIN  =      1    spin polarized calculation?
   LNONCOLLINEAR =      F non collinear calculations
   LSORBIT =      F    spin-orbit coupling
   INIWAV =      1    electr: 0-lowe 1-rand  2-diag
   LASPH  =      T    aspherical Exc in radial PAW
 Electronic Relaxation 1
   ENCUT  =  600.0 eV  44.10 Ry    6.64 a.u.  15.80 15.80 15.80*2*pi/ulx,y,z
   ENINI  =  600.0     initial cutoff
   ENAUG  =  605.4 eV  augmentation charge cutoff
   NELM   =    200;   NELMIN=  2; NELMDL= -5     # of ELM steps 
   EDIFF  = 0.1E-05   stopping-criterion for ELM
   LREAL  =      T    real-space projection
   NLSPLINE    = F    spline interpolate recip. space projectors
   LCOMPAT=      F    compatible to vasp.4.4
   GGA_COMPAT  = T    GGA compatible to vasp.4.4-vasp.4.6
   LMAXPAW     = -100 max onsite density
   LMAXMIX     =    6 max onsite mixed and CHGCAR
   VOSKOWN=      0    Vosko Wilk Nusair interpolation
   ROPT   =   -0.00025  -0.00025
 Ionic relaxation
   EDIFFG = 0.1E-04   stopping-criterion for IOM
   NSW    =      0    number of steps for IOM
   NBLOCK =      1;   KBLOCK =      1    inner block; outer block 
   IBRION =     -1    ionic relax: 0-MD 1-quasi-New 2-CG
   NFREE  =      0    steps in history (QN), initial steepest desc. (CG)
   ISIF   =      2    stress and relaxation
   IWAVPR =     10    prediction:  0-non 1-charg 2-wave 3-comb
   ISYM   =      2    0-nonsym 1-usesym 2-fastsym
   LCORR  =      T    Harris-Foulkes like correction to forces

   POTIM  = 0.5000    time-step for ionic-motion
   TEIN   =    0.0    initial temperature
   TEBEG  =    0.0;   TEEND  =   0.0 temperature during run
   SMASS  =  -3.00    Nose mass-parameter (am)
   estimated Nose-frequenzy (Omega)   =  0.10E-29 period in steps = 0.13E+47 mass=  -0.143E-26a.u.
   SCALEE = 1.0000    scale energy and forces
   NPACO  =    256;   APACO  = 10.0  distance and # of slots for P.C.
   PSTRESS=    0.0 pullay stress

  Mass of Ions in am
   POMASS = 208.98 16.00
  Ionic Valenz
   ZVAL   =   5.00  6.00
  Atomic Wigner-Seitz radii
   RWIGS  =  -1.00 -1.00
  virtual crystal weights 
   VCA    =   1.00  1.00
   NELECT =     112.0000    total number of electrons
   NUPDOWN=      -1.0000    fix difference up-down

 DOS related values:
   EMIN   =  10.00;   EMAX   =-10.00  energy-range for DOS
   EFERMI =   0.00
   ISMEAR =    -5;   SIGMA  =   0.20  broadening in eV -4-tet -1-fermi 0-gaus

 Electronic relaxation 2 (details)
   IALGO  =     68    algorithm
   LDIAG  =      T    sub-space diagonalisation (order eigenvalues)
   LSUBROT=      F    optimize rotation matrix (better conditioning)
   TURBO    =      0    0=normal 1=particle mesh
   IRESTART =      0    0=no restart 2=restart with 2 vectors
   NREBOOT  =      0    no. of reboots
   NMIN     =      0    reboot dimension
   EREF     =   0.00    reference energy to select bands
   IMIX   =      4    mixing-type and parameters
     AMIX     =   0.40;   BMIX     =  1.00
     AMIX_MAG =   1.60;   BMIX_MAG =  1.00
     AMIN     =   0.10
     WC   =   100.;   INIMIX=   1;  MIXPRE=   1;  MAXMIX= -45

 Intra band minimization:
   WEIMIN = 0.0000     energy-eigenvalue tresh-hold
   EBREAK =  0.35E-08  absolut break condition
   DEPER  =   0.30     relativ break condition  

   TIME   =   0.40     timestep for ELM

  volume/ion in A,a.u.               =      17.49       118.02
  Fermi-wavevector in a.u.,A,eV,Ry     =   1.120005  2.116502 17.067294  1.254411
  Thomas-Fermi vector in A             =   2.256648
 
 Write flags
   LWAVE        =      F    write WAVECAR
   LDOWNSAMPLE  =      F    k-point downsampling of WAVECAR
   LCHARG       =      F    write CHGCAR
   LVTOT        =      F    write LOCPOT, total local potential
   LVHAR        =      F    write LOCPOT, Hartree potential only
   LELF         =      F    write electronic localiz. function (ELF)
   LORBIT       =     11    0 simple, 1 ext, 2 COOP (PROOUT), +10 PAW based schemes


 Dipole corrections
   LMONO  =      F    monopole corrections only (constant potential shift)
   LDIPOL =      F    correct potential (dipole corrections)
   IDIPOL =      0    1-x, 2-y, 3-z, 4-all directions 
   EPSILON=  1.0000000 bulk dielectric constant

 Exchange correlation treatment:
   GGA     =    --    GGA type
   LEXCH   =     8    internal setting for exchange type
   LIBXC   =     F    Libxc                    
   VOSKOWN =     0    Vosko Wilk Nusair interpolation
   LHFCALC =     F    Hartree Fock is set to
   LHFONE  =     F    Hartree Fock one center treatment
   AEXX    =    0.0000 exact exchange contribution

 Linear response parameters
   LEPSILON=     F    determine dielectric tensor
   LRPA    =     F    only Hartree local field effects (RPA)
   LNABLA  =     F    use nabla operator in PAW spheres
   LVEL    =     F    velocity operator in full k-point grid
   CSHIFT  =0.1000    complex shift for real part using Kramers Kronig
   OMEGAMAX=  -1.0    maximum frequency
   DEG_THRESHOLD= 0.2000000E-02 threshold for treating states as degnerate
   RTIME   =   -0.100 relaxation time in fs
  (WPLASMAI=    0.000 imaginary part of plasma frequency in eV, 0.658/RTIME)
   DFIELD  = 0.0000000 0.0000000 0.0000000 field for delta impulse in time
 
  Optional k-point grid parameters
   LKPOINTS_OPT  =     F    use optional k-point grid
   KPOINTS_OPT_MODE=     1    mode for optional k-point grid
 
 Orbital magnetization related:
   ORBITALMAG=     F  switch on orbital magnetization
   LCHIMAG   =     F  perturbation theory with respect to B field
   DQ        =  0.001000  dq finite difference perturbation B field
   LLRAUG    =     F  two centre corrections for induced B field



--------------------------------------------------------------------------------------------------------


 Static calculation
 charge density and potential remain constant during run
 non-spin polarized calculation
 RMM-DIIS sequential band-by-band and
  variant of blocked Davidson during initial phase
 perform sub-space diagonalisation
    before iterative eigenvector-optimisation
 no mixing
 using additional bands           16
 real space projection scheme for non local part
 use partial core corrections
 calculate Harris-corrections to forces 
   (improved forces if not selfconsistent)
 use gradient corrections 
 WARNING: stress and forces are not correct
  (second derivative of E(xc) not defined)
 use of overlap-Matrix (Vanderbilt PP)
 Fermi weights with tetrahedron method with Bloechl corrections


--------------------------------------------------------------------------------------------------------


  energy-cutoff  :      600.00
  volume of cell :      349.77
      direct lattice vectors                 reciprocal lattice vectors
     6.849043438  0.000000000  3.954297073     0.146005790 -0.051620842  0.000000000
     2.283014479  6.457340080  3.954297073     0.000000000  0.154862527  0.000000000
     0.000000000  0.000000000  7.908594145    -0.073002895 -0.051620842  0.126444724

  length of vectors
     7.908594145  7.908594145  7.908594145     0.154862527  0.154862527  0.154862527


 
 k-points in units of 2pi/SCALE and weight: pymatgen with grid density = 3000 / numb
   0.00000000  0.00000000  0.00000000       0.002
   0.01825072 -0.00645261  0.00000000       0.016
   0.03650145 -0.01290521  0.00000000       0.016
   0.05475217 -0.01935782  0.00000000       0.016
   0.07300290 -0.02581042  0.00000000       0.008
   0.01825072  0.01290521  0.00000000       0.012
   0.03650145  0.00645261  0.00000000       0.047
   0.05475217 -0.00000000  0.00000000       0.047
   0.07300290 -0.00645261  0.00000000       0.047
  -0.05475217  0.03871563  0.00000000       0.047
  -0.03650145  0.03226303  0.00000000       0.047
  -0.01825072  0.02581042  0.00000000       0.023
   0.03650145  0.02581042  0.00000000       0.012
   0.05475217  0.01935782  0.00000000       0.047
   0.07300290  0.01290521  0.00000000       0.047
  -0.05475217  0.05807345  0.00000000       0.047
  -0.03650145  0.05162084  0.00000000       0.023
   0.05475217  0.03871563  0.00000000       0.012
   0.07300290  0.03226303  0.00000000       0.047
  -0.05475217  0.07743126  0.00000000       0.023
   0.07300290  0.05162084  0.00000000       0.006
   0.04562681  0.01290521  0.01580559       0.047
   0.06387753  0.00645261  0.01580559       0.094
  -0.06387753  0.05162084  0.01580559       0.047
   0.06387753  0.02581042  0.01580559       0.047
  -0.06387753  0.07097866  0.01580559       0.094
  -0.04562681  0.06452605  0.01580559       0.047
  -0.06387753  0.09033647  0.01580559       0.023
  -0.05475217  0.07743126  0.03161118       0.012
 
 k-points in reciprocal lattice and weights: pymatgen with grid density = 3000 / numb
   0.00000000  0.00000000  0.00000000       0.002
   0.12500000 -0.00000000  0.00000000       0.016
   0.25000000 -0.00000000  0.00000000       0.016
   0.37500000  0.00000000  0.00000000       0.016
   0.50000000 -0.00000000  0.00000000       0.008
   0.12500000  0.12500000  0.00000000       0.012
   0.25000000  0.12500000  0.00000000       0.047
   0.37500000  0.12500000  0.00000000       0.047
   0.50000000  0.12500000  0.00000000       0.047
  -0.37500000  0.12500000  0.00000000       0.047
  -0.25000000  0.12500000  0.00000000       0.047
  -0.12500000  0.12500000  0.00000000       0.023
   0.25000000  0.25000000  0.00000000       0.012
   0.37500000  0.25000000  0.00000000       0.047
   0.50000000  0.25000000  0.00000000       0.047
  -0.37500000  0.25000000  0.00000000       0.047
  -0.25000000  0.25000000  0.00000000       0.023
   0.37500000  0.37500000  0.00000000       0.012
   0.50000000  0.37500000  0.00000000       0.047
  -0.37500000  0.37500000  0.00000000       0.023
   0.50000000  0.50000000  0.00000000       0.006
   0.37500000  0.25000000  0.12500000       0.047
   0.50000000  0.25000000  0.12500000       0.094
  -0.37500000  0.25000000  0.12500000       0.047
   0.50000000  0.37500000  0.12500000       0.047
  -0.37500000  0.37500000  0.12500000       0.094
  -0.25000000  0.37500000  0.12500000       0.047
  -0.37500000  0.50000000  0.12500000       0.023
  -0.25000000  0.50000000  0.25000000       0.012
 
 position of ions in fractional coordinates (direct lattice) 
   0.87654112  0.87654112  0.37037563
   0.87654112  0.37037563  0.87654112
   0.37037563  0.87654112  0.87654112
   0.87654112  0.87654112  0.87654112
   0.37345888  0.37345888  0.87962437
   0.37345888  0.87962437  0.37345888
   0.87962437  0.37345888  0.37345888
   0.37345888  0.37345888  0.37345888
   0.04544750  0.04544750  0.45455250
   0.45455250  0.04544750  0.45455250
   0.04544750  0.45455250  0.45455250
   0.45455250  0.45455250  0.04544750
   0.04544750  0.45455250  0.04544750
   0.45455250  0.04544750  0.04544750
   0.20455250  0.20455250  0.79544750
   0.79544750  0.20455250  0.79544750
   0.20455250  0.79544750  0.79544750
   0.79544750  0.79544750  0.20455250
   0.20455250  0.79544750  0.20455250
   0.79544750  0.20455250  0.20455250
 
 position of ions in cartesian coordinates  (Angst):
   8.00462426  5.66012410  9.86135853
   6.84904113  2.39164143 11.86288722
   4.53787487  5.66012410 11.86288722
   8.00462426  5.66012410 13.86441592
   3.41044814  2.41155100  9.91012683
   4.56603126  5.68003367  7.90859814
   6.87719752  2.41155100  7.90859814
   3.41044814  2.41155100  5.90706945
   0.41502924  0.29346999  3.95429707
   3.21700710  0.29346999  5.57201974
   1.34902186  2.93520005  5.57201974
   4.15099971  2.93520005  3.95429707
   1.34902186  2.93520005  2.33657440
   3.21700710  0.29346999  2.33657440
   1.86798524  1.32086503  7.90859415
   5.91505082  1.32086503 10.24516855
   3.21700710  5.13647505 10.24516855
   7.26407268  5.13647505  7.90859415
   3.21700710  5.13647505  5.57201974
   5.91505082  1.32086503  5.57201974
 


--------------------------------------------------------------------------------------------------------


 k-point   1 :   0.0000 0.0000 0.0000  plane waves:   11575
 k-point   2 :   0.1250-0.0000 0.0000  plane waves:   11711
 k-point   3 :   0.2500-0.0000 0.0000  plane waves:   11675
 k-point   4 :   0.3750 0.0000 0.0000  plane waves:   11654
 k-point   5 :   0.5000-0.0000 0.0000  plane waves:   11708
 k-point   6 :   0.1250 0.1250 0.0000  plane waves:   11671
 k-point   7 :   0.2500 0.1250 0.0000  plane waves:   11664
 k-point   8 :   0.3750 0.1250 0.0000  plane waves:   11673
 k-point   9 :   0.5000 0.1250 0.0000  plane waves:   11673
 k-point  10 :  -0.3750 0.1250 0.0000  plane waves:   11653
 k-point  11 :  -0.2500 0.1250 0.0000  plane waves:   11666
 k-point  12 :  -0.1250 0.1250 0.0000  plane waves:   11648
 k-point  13 :   0.2500 0.2500 0.0000  plane waves:   11650
 k-point  14 :   0.3750 0.2500 0.0000  plane waves:   11667
 k-point  15 :   0.5000 0.2500 0.0000  plane waves:   11689
 k-point  16 :  -0.3750 0.2500 0.0000  plane waves:   11681
 k-point  17 :  -0.2500 0.2500 0.0000  plane waves:   11674
 k-point  18 :   0.3750 0.3750 0.0000  plane waves:   11662
 k-point  19 :   0.5000 0.3750 0.0000  plane waves:   11678
 k-point  20 :  -0.3750 0.3750 0.0000  plane waves:   11680
 k-point  21 :   0.5000 0.5000 0.0000  plane waves:   11702
 k-point  22 :   0.3750 0.2500 0.1250  plane waves:   11678
 k-point  23 :   0.5000 0.2500 0.1250  plane waves:   11667
 k-point  24 :  -0.3750 0.2500 0.1250  plane waves:   11700
 k-point  25 :   0.5000 0.3750 0.1250  plane waves:   11654
 k-point  26 :  -0.3750 0.3750 0.1250  plane waves:   11681
 k-point  27 :  -0.2500 0.3750 0.1250  plane waves:   11678
 k-point  28 :  -0.3750 0.5000 0.1250  plane waves:   11662
 k-point  29 :  -0.2500 0.5000 0.2500  plane waves:   11652

 maximum and minimum number of plane-waves per node :      1480     1420

 maximum number of plane-waves:     11711
 maximum index in each direction: 
   IXMAX=   16   IYMAX=   15   IZMAX=   15
   IXMIN=  -16   IYMIN=  -16   IZMIN=  -16


 real space projection operators:
  total allocation   :      13850.00 KBytes
  max/ min on nodes  :       1790.47       1638.81


 parallel 3D FFT for wavefunctions:
    minimum data exchange during FFTs selected (reduces bandwidth)
 parallel 3D FFT for charge:
    minimum data exchange during FFTs selected (reduces bandwidth)


 total amount of memory used by VASP MPI-rank0    48000. kBytes
=======================================================================

   base      :      30000. kBytes
   nonlr-proj:       6463. kBytes
   fftplans  :       2092. kBytes
   grid      :       3174. kBytes
   one-center:         24. kBytes
   wavefun   :       6247. kBytes
 
     INWAV:  cpu time      0.0000: real time      0.0000
 initial charge density was supplied:
 number of electron     112.0000014 magnetization 
 keeping initial charge density in first step


--------------------------------------------------------------------------------------------------------


 Maximum index for non-local projection operator         1490
 Maximum index for augmentation-charges         1296 (set IRDMAX)


--------------------------------------------------------------------------------------------------------


 First call to EWALD:  gamma=   0.252
 Maximum number of real-space cells 3x 3x 3
 Maximum number of reciprocal cells 3x 3x 3

    FEWALD:  cpu time      0.0029: real time      0.0029


--------------------------------------- Iteration      1(   1)  ---------------------------------------


    POTLOK:  cpu time      0.1723: real time      0.2171
    SETDIJ:  cpu time      0.1127: real time      0.1237
     EDDAV:  cpu time      3.1266: real time      3.1613
 BZINTS: Fermi energy:   18.136934;  112.000000 electrons
         Band energy: 0.619225E+03;  BLOECHL correction:   -0.061879
       DOS:  cpu time      0.0289: real time      0.0291
    --------------------------------------------
      LOOP:  cpu time      3.4405: real time      3.5312

 eigenvalue-minimisations  :  4176
 total energy-change (2. order) : 0.7451097E+03  (-0.5470290E+04)
 number of electron     112.0000014 magnetization 
 augmentation part      112.0000014 magnetization 

 Free energy of the ion-electron system (eV)
  ---------------------------------------------------
  alpha Z        PSCENC =       119.72332285
  Ewald energy   TEWEN  =     -4451.08738695
  -Hartree energ DENC   =     -2314.06958597
  -exchange      EXHF   =         0.00000000
  -V(xc)+E(xc)   XCENC  =      -534.62722627
  PAW double counting   =      7464.30681126    -6553.21086117
  entropy T*S    EENTRO =         0.00000000
  eigenvalues    EBANDS =       619.22479165
  atomic energy  EATOM  =      6394.84983323
  Solvation  Ediel_sol  =         0.00000000
  ---------------------------------------------------
  free energy    TOTEN  =       745.10969864 eV

  energy without entropy =      745.10969864  energy(sigma->0) =      745.10969864


--------------------------------------------------------------------------------------------------------




--------------------------------------- Iteration      1(   2)  ---------------------------------------


     EDDAV:  cpu time      4.6961: real time      4.7540
 BZINTS: Fermi energy:    6.104674;  112.000000 electrons
         Band energy:-0.156662E+03;  BLOECHL correction:    0.000000
       DOS:  cpu time      0.0256: real time      0.0259
    --------------------------------------------
      LOOP:  cpu time      4.7217: real time      4.7799

 eigenvalue-minimisations  :  5400
 total energy-change (2. order) :-0.7758871E+03  (-0.7368624E+03)
 number of electron     112.0000014 magnetization 
 augmentation part      112.0000014 magnetization 

 Free energy of the ion-electron system (eV)
  ---------------------------------------------------
  alpha Z        PSCENC =       119.72332285
  Ewald energy   TEWEN  =     -4451.08738695
  -Hartree energ DENC   =     -2314.06958597
  -exchange      EXHF   =         0.00000000
  -V(xc)+E(xc)   XCENC  =      -534.62722627
  PAW double counting   =      7464.30681126    -6553.21086117
  entropy T*S    EENTRO =         0.00000000
  eigenvalues    EBANDS =      -156.66226775
  atomic energy  EATOM  =      6394.84983323
  Solvation  Ediel_sol  =         0.00000000
  ---------------------------------------------------
  free energy    TOTEN  =       -30.77736077 eV

  energy without entropy =      -30.77736077  energy(sigma->0) =      -30.77736077


--------------------------------------------------------------------------------------------------------




--------------------------------------- Iteration      1(   3)  ---------------------------------------


     EDDAV:  cpu time      4.3881: real time      4.4212
 BZINTS: Fermi energy:    4.011514;  112.000000 electrons
         Band energy:-0.236408E+03;  BLOECHL correction:   -0.000000
       DOS:  cpu time      0.0238: real time      0.0239
    --------------------------------------------
      LOOP:  cpu time      4.4119: real time      4.4452

 eigenvalue-minimisations  :  4944
 total energy-change (2. order) :-0.7974615E+02  (-0.7807241E+02)
 number of electron     112.0000014 magnetization 
 augmentation part      112.0000014 magnetization 

 Free energy of the ion-electron system (eV)
  ---------------------------------------------------
  alpha Z        PSCENC =       119.72332285
  Ewald energy   TEWEN  =     -4451.08738695
  -Hartree energ DENC   =     -2314.06958597
  -exchange      EXHF   =         0.00000000
  -V(xc)+E(xc)   XCENC  =      -534.62722627
  PAW double counting   =      7464.30681126    -6553.21086117
  entropy T*S    EENTRO =         0.00000000
  eigenvalues    EBANDS =      -236.40841578
  atomic energy  EATOM  =      6394.84983323
  Solvation  Ediel_sol  =         0.00000000
  ---------------------------------------------------
  free energy    TOTEN  =      -110.52350879 eV

  energy without entropy =     -110.52350879  energy(sigma->0) =     -110.52350879


--------------------------------------------------------------------------------------------------------




--------------------------------------- Iteration      1(   4)  ---------------------------------------


     EDDAV:  cpu time      4.2474: real time      4.2746
 BZINTS: Fermi energy:    3.946347;  112.000000 electrons
         Band energy:-0.239310E+03;  BLOECHL correction:    0.000000
       DOS:  cpu time      0.0237: real time      0.0238
    --------------------------------------------
      LOOP:  cpu time      4.2711: real time      4.2984

 eigenvalue-minimisations  :  5760
 total energy-change (2. order) :-0.2901323E+01  (-0.2886369E+01)
 number of electron     112.0000014 magnetization 
 augmentation part      112.0000014 magnetization 

 Free energy of the ion-electron system (eV)
  ---------------------------------------------------
  alpha Z        PSCENC =       119.72332285
  Ewald energy   TEWEN  =     -4451.08738695
  -Hartree energ DENC   =     -2314.06958597
  -exchange      EXHF   =         0.00000000
  -V(xc)+E(xc)   XCENC  =      -534.62722627
  PAW double counting   =      7464.30681126    -6553.21086117
  entropy T*S    EENTRO =         0.00000000
  eigenvalues    EBANDS =      -239.30973836
  atomic energy  EATOM  =      6394.84983323
  Solvation  Ediel_sol  =         0.00000000
  ---------------------------------------------------
  free energy    TOTEN  =      -113.42483137 eV

  energy without entropy =     -113.42483137  energy(sigma->0) =     -113.42483137


--------------------------------------------------------------------------------------------------------




--------------------------------------- Iteration      1(   5)  ---------------------------------------


     EDDAV:  cpu time      3.8774: real time      3.9280
 BZINTS: Fermi energy:    3.944976;  112.000000 electrons
         Band energy:-0.239375E+03;  BLOECHL correction:    0.000000
       DOS:  cpu time      0.0242: real time      0.0244
    --------------------------------------------
      LOOP:  cpu time      3.9016: real time      3.9524

 eigenvalue-minimisations  :  5176
 total energy-change (2. order) :-0.6555591E-01  (-0.6548477E-01)
 number of electron     112.0000014 magnetization 
 augmentation part      112.0000014 magnetization 

 Free energy of the ion-electron system (eV)
  ---------------------------------------------------
  alpha Z        PSCENC =       119.72332285
  Ewald energy   TEWEN  =     -4451.08738695
  -Hartree energ DENC   =     -2314.06958597
  -exchange      EXHF   =         0.00000000
  -V(xc)+E(xc)   XCENC  =      -534.62722627
  PAW double counting   =      7464.30681126    -6553.21086117
  entropy T*S    EENTRO =         0.00000000
  eigenvalues    EBANDS =      -239.37529427
  atomic energy  EATOM  =      6394.84983323
  Solvation  Ediel_sol  =         0.00000000
  ---------------------------------------------------
  free energy    TOTEN  =      -113.49038728 eV

  energy without entropy =     -113.49038728  energy(sigma->0) =     -113.49038728


--------------------------------------------------------------------------------------------------------




--------------------------------------- Iteration      1(   6)  ---------------------------------------


    EDDIAG:  cpu time      1.0148: real time      1.0366
  RMM-DIIS:  cpu time      1.2985: real time      1.3077
    ORTHCH:  cpu time      0.0600: real time      0.0808
 BZINTS: Fermi energy:    3.944958;  112.000000 electrons
         Band energy:-0.239377E+03;  BLOECHL correction:    0.000000
       DOS:  cpu time      0.0239: real time      0.0240
    --------------------------------------------
      LOOP:  cpu time      2.3972: real time      2.4492

 eigenvalue-minimisations  :  4362
 total energy-change (2. order) :-0.2099247E-02  (-0.2099247E-02)
 number of electron     112.0000014 magnetization 
 augmentation part      112.0000014 magnetization 

 Free energy of the ion-electron system (eV)
  ---------------------------------------------------
  alpha Z        PSCENC =       119.72332285
  Ewald energy   TEWEN  =     -4451.08738695
  -Hartree energ DENC   =     -2314.06958597
  -exchange      EXHF   =         0.00000000
  -V(xc)+E(xc)   XCENC  =      -534.62722627
  PAW double counting   =      7464.30681126    -6553.21086117
  entropy T*S    EENTRO =         0.00000000
  eigenvalues    EBANDS =      -239.37739351
  atomic energy  EATOM  =      6394.84983323
  Solvation  Ediel_sol  =         0.00000000
  ---------------------------------------------------
  free energy    TOTEN  =      -113.49248653 eV

  energy without entropy =     -113.49248653  energy(sigma->0) =     -113.49248653


--------------------------------------------------------------------------------------------------------




--------------------------------------- Iteration      1(   7)  ---------------------------------------


    EDDIAG:  cpu time      0.4054: real time      0.4083
  RMM-DIIS:  cpu time      1.3316: real time      1.3442
    ORTHCH:  cpu time      0.1494: real time      0.1509
 BZINTS: Fermi energy:    3.945092;  112.000000 electrons
         Band energy:-0.239379E+03;  BLOECHL correction:    0.000000
       DOS:  cpu time      0.0252: real time      0.0253
    --------------------------------------------
      LOOP:  cpu time      1.9116: real time      1.9287

 eigenvalue-minimisations  :  6279
 total energy-change (2. order) :-0.1107430E-02  (-0.1104561E-02)
 number of electron     112.0000014 magnetization 
 augmentation part      112.0000014 magnetization 

 Free energy of the ion-electron system (eV)
  ---------------------------------------------------
  alpha Z        PSCENC =       119.72332285
  Ewald energy   TEWEN  =     -4451.08738695
  -Hartree energ DENC   =     -2314.06958597
  -exchange      EXHF   =         0.00000000
  -V(xc)+E(xc)   XCENC  =      -534.62722627
  PAW double counting   =      7464.30681126    -6553.21086117
  entropy T*S    EENTRO =         0.00000000
  eigenvalues    EBANDS =      -239.37850094
  atomic energy  EATOM  =      6394.84983323
  Solvation  Ediel_sol  =         0.00000000
  ---------------------------------------------------
  free energy    TOTEN  =      -113.49359396 eV

  energy without entropy =     -113.49359396  energy(sigma->0) =     -113.49359396


--------------------------------------------------------------------------------------------------------




--------------------------------------- Iteration      1(   8)  ---------------------------------------


    EDDIAG:  cpu time      0.9983: real time      1.0145
  RMM-DIIS:  cpu time      1.1179: real time      1.1284
    ORTHCH:  cpu time      0.0617: real time      0.0620
 BZINTS: Fermi energy:    3.945133;  112.000000 electrons
         Band energy:-0.239379E+03;  BLOECHL correction:    0.000000
       DOS:  cpu time      0.0237: real time      0.0238
    --------------------------------------------
      LOOP:  cpu time      2.2015: real time      2.2287

 eigenvalue-minimisations  :  5318
 total energy-change (2. order) :-0.3630701E-04  (-0.4864752E-04)
 number of electron     112.0000014 magnetization 
 augmentation part      112.0000014 magnetization 

 Free energy of the ion-electron system (eV)
  ---------------------------------------------------
  alpha Z        PSCENC =       119.72332285
  Ewald energy   TEWEN  =     -4451.08738695
  -Hartree energ DENC   =     -2314.06958597
  -exchange      EXHF   =         0.00000000
  -V(xc)+E(xc)   XCENC  =      -534.62722627
  PAW double counting   =      7464.30681126    -6553.21086117
  entropy T*S    EENTRO =         0.00000000
  eigenvalues    EBANDS =      -239.37853725
  atomic energy  EATOM  =      6394.84983323
  Solvation  Ediel_sol  =         0.00000000
  ---------------------------------------------------
  free energy    TOTEN  =      -113.49363026 eV

  energy without entropy =     -113.49363026  energy(sigma->0) =     -113.49363026


--------------------------------------------------------------------------------------------------------




--------------------------------------- Iteration      1(   9)  ---------------------------------------


    EDDIAG:  cpu time      0.9295: real time      0.9475
  RMM-DIIS:  cpu time      2.0352: real time      2.0499
    ORTHCH:  cpu time      0.0545: real time      0.0548
 BZINTS: Fermi energy:    3.944880;  112.000000 electrons
         Band energy:-0.239379E+03;  BLOECHL correction:    0.000000
       DOS:  cpu time      0.0238: real time      0.0240
    --------------------------------------------
      LOOP:  cpu time      3.0430: real time      3.0761

 eigenvalue-minimisations  :  5699
 total energy-change (2. order) :-0.1299539E-04  (-0.1326916E-04)
 number of electron     112.0000014 magnetization 
 augmentation part      112.0000014 magnetization 

 Free energy of the ion-electron system (eV)
  ---------------------------------------------------
  alpha Z        PSCENC =       119.72332285
  Ewald energy   TEWEN  =     -4451.08738695
  -Hartree energ DENC   =     -2314.06958597
  -exchange      EXHF   =         0.00000000
  -V(xc)+E(xc)   XCENC  =      -534.62722627
  PAW double counting   =      7464.30681126    -6553.21086117
  entropy T*S    EENTRO =         0.00000000
  eigenvalues    EBANDS =      -239.37855025
  atomic energy  EATOM  =      6394.84983323
  Solvation  Ediel_sol  =         0.00000000
  ---------------------------------------------------
  free energy    TOTEN  =      -113.49364326 eV

  energy without entropy =     -113.49364326  energy(sigma->0) =     -113.49364326


--------------------------------------------------------------------------------------------------------




--------------------------------------- Iteration      1(  10)  ---------------------------------------


    EDDIAG:  cpu time      0.4401: real time      0.4429
  RMM-DIIS:  cpu time      1.0081: real time      1.0150
    ORTHCH:  cpu time      0.0662: real time      0.0666
 BZINTS: Fermi energy:    3.944993;  112.000000 electrons
         Band energy:-0.239379E+03;  BLOECHL correction:    0.000000
       DOS:  cpu time      0.0236: real time      0.0237
    --------------------------------------------
      LOOP:  cpu time      1.5381: real time      1.5483

 eigenvalue-minimisations  :  3967
 total energy-change (2. order) :-0.6118889E-06  (-0.7497478E-06)
 number of electron     112.0000014 magnetization 
 augmentation part      112.0000014 magnetization 

 Free energy of the ion-electron system (eV)
  ---------------------------------------------------
  alpha Z        PSCENC =       119.72332285
  Ewald energy   TEWEN  =     -4451.08738695
  -Hartree energ DENC   =     -2314.06958597
  -exchange      EXHF   =         0.00000000
  -V(xc)+E(xc)   XCENC  =      -534.62722627
  PAW double counting   =      7464.30681126    -6553.21086117
  entropy T*S    EENTRO =         0.00000000
  eigenvalues    EBANDS =      -239.37855086
  atomic energy  EATOM  =      6394.84983323
  Solvation  Ediel_sol  =         0.00000000
  ---------------------------------------------------
  free energy    TOTEN  =      -113.49364387 eV

  energy without entropy =     -113.49364387  energy(sigma->0) =     -113.49364387


--------------------------------------------------------------------------------------------------------




 average (electrostatic) potential at core
  the test charge radii are     1.4024  0.7215
  (the norm of the test charge is              1.0000)
       1 -62.1282       2 -62.1283       3 -62.1283       4 -62.1281       5 -62.1282
       6 -62.1282       7 -62.1282       8 -62.1283       9 -69.7313      10 -69.7315
      11 -69.7315      12 -69.7316      13 -69.7313      14 -69.7313      15 -69.7315
      16 -69.7316      17 -69.7316      18 -69.7316      19 -69.7315      20 -69.7315
 
 
 
 E-fermi :   3.9450     XC(G=0):  -9.9538     alpha+bet :-10.6498

 Fermi energy:         3.9449925122

 k-point     1 :       0.0000    0.0000    0.0000
  band No.  band energies     occupation 
      1     -14.0909      2.00000
      2     -12.8701      2.00000
      3     -12.8187      2.00000
      4     -12.8187      2.00000
      5     -12.8187      2.00000
      6     -12.7376      2.00000
      7     -12.7376      2.00000
      8     -12.7376      2.00000
      9     -12.6619      2.00000
     10     -12.6619      2.00000
     11     -11.9716      2.00000
     12     -11.9716      2.00000
     13      -5.7103      2.00000
     14      -5.7102      2.00000
     15      -5.7102      2.00000
     16      -4.8277      2.00000
     17      -4.8276      2.00000
     18      -4.8276      2.00000
     19      -4.7308      2.00000
     20      -3.1168      2.00000
     21      -0.5050      2.00000
     22      -0.3984      2.00000
     23      -0.3984      2.00000
     24      -0.3983      2.00000
     25       0.7508      2.00000
     26       0.7508      2.00000
     27       0.7509      2.00000
     28       0.9184      2.00000
     29       0.9184      2.00000
     30       0.9185      2.00000
     31       1.0582      2.00000
     32       1.0582      2.00000
     33       1.0583      2.00000
     34       1.8289      2.00000
     35       1.8603      2.00000
     36       1.8603      2.00000
     37       2.3699      2.00000
     38       2.3699      2.00000
     39       2.5159      2.00000
     40       2.5159      2.00000
     41       2.5159      2.00000
     42       2.6086      2.00000
     43       2.6086      2.00000
     44       2.6086      2.00000
     45       3.1552      2.00000
     46       3.1553      2.00000
     47       3.1553      2.00000
     48       3.2173      2.00000
     49       3.2173      2.00000
     50       3.2173      2.00000
     51       3.6249      2.00000
     52       3.6249      2.00000
     53       3.6251      2.00000
     54       3.8257      2.00000
     55       3.8258      2.00000
     56       3.8258      2.00000
     57       6.2587      0.00000
     58       6.2588      0.00000
     59       6.2588      0.00000
     60       6.8996      0.00000
     61       7.1541      0.00000
     62       7.5892      0.00000
     63       7.5892      0.00000
     64       9.2340      0.00000
     65       9.2340      0.00000
     66       9.2341      0.00000
     67       9.8439      0.00000
     68       9.8444      0.00000
     69      10.1638      0.00000
     70      10.1681      0.00000
     71      10.1729      0.00000
     72      11.3072      0.00000

 k-point     2 :       0.1250   -0.0000    0.0000
  band No.  band energies     occupation 
      1     -14.0682      2.00000
      2     -13.0106      2.00000
      3     -12.8553      2.00000
      4     -12.8552      2.00000
      5     -12.8435      2.00000
      6     -12.7400      2.00000
      7     -12.7400      2.00000
      8     -12.6083      2.00000
      9     -12.6083      2.00000
     10     -12.5943      2.00000
     11     -11.9871      2.00000
     12     -11.9871      2.00000
     13      -5.7710      2.00000
     14      -5.6778      2.00000
     15      -5.6778      2.00000
     16      -4.8613      2.00000
     17      -4.8613      2.00000
     18      -4.8544      2.00000
     19      -4.6191      2.00000
     20      -3.0779      2.00000
     21      -0.5102      2.00000
     22      -0.3960      2.00000
     23      -0.3959      2.00000
     24      -0.3648      2.00000
     25       0.6552      2.00000
     26       0.6552      2.00000
     27       0.6885      2.00000
     28       0.8960      2.00000
     29       0.8998      2.00000
     30       0.8999      2.00000
     31       1.0356      2.00000
     32       1.1558      2.00000
     33       1.1559      2.00000
     34       1.7533      2.00000
     35       1.8766      2.00000
     36       1.8766      2.00000
     37       2.2872      2.00000
     38       2.2872      2.00000
     39       2.4732      2.00000
     40       2.4758      2.00000
     41       2.4758      2.00000
     42       2.6425      2.00000
     43       2.6590      2.00000
     44       2.6590      2.00000
     45       3.1463      2.00000
     46       3.1763      2.00000
     47       3.1763      2.00000
     48       3.2341      2.00000
     49       3.2817      2.00000
     50       3.2817      2.00000
     51       3.6193      2.00000
     52       3.6233      2.00000
     53       3.6234      2.00000
     54       3.7850      2.00000
     55       3.7851      2.00000
     56       3.8203      2.00000
     57       6.2789      0.00000
     58       6.3871      0.00000
     59       6.3871      0.00000
     60       6.9930      0.00000
     61       7.1920      0.00000
     62       7.6465      0.00000
     63       7.6465      0.00000
     64       9.1925      0.00000
     65       9.1925      0.00000
     66       9.2298      0.00000
     67       9.8646      0.00000
     68       9.8653      0.00000
     69       9.9044      0.00000
     70      10.1547      0.00000
     71      10.1614      0.00000
     72      10.9890      0.00000

 k-point     3 :       0.2500   -0.0000    0.0000
  band No.  band energies     occupation 
      1     -14.0033      2.00000
      2     -13.2174      2.00000
      3     -12.9087      2.00000
      4     -12.9086      2.00000
      5     -12.8460      2.00000
      6     -12.7440      2.00000
      7     -12.7439      2.00000
      8     -12.5092      2.00000
      9     -12.5091      2.00000
     10     -12.4481      2.00000
     11     -12.0307      2.00000
     12     -12.0307      2.00000
     13      -5.8847      2.00000
     14      -5.5853      2.00000
     15      -5.5853      2.00000
     16      -4.9565      2.00000
     17      -4.9565      2.00000
     18      -4.9167      2.00000
     19      -4.3691      2.00000
     20      -2.9997      2.00000
     21      -0.4876      2.00000
     22      -0.3849      2.00000
     23      -0.3849      2.00000
     24      -0.2665      2.00000
     25       0.4982      2.00000
     26       0.4983      2.00000
     27       0.5258      2.00000
     28       0.7461      2.00000
     29       0.8602      2.00000
     30       0.8603      2.00000
     31       0.9921      2.00000
     32       1.2888      2.00000
     33       1.2889      2.00000
     34       1.5866      2.00000
     35       1.9644      2.00000
     36       1.9645      2.00000
     37       2.1388      2.00000
     38       2.1388      2.00000
     39       2.3907      2.00000
     40       2.3907      2.00000
     41       2.4783      2.00000
     42       2.7202      2.00000
     43       2.7428      2.00000
     44       2.7428      2.00000
     45       3.0494      2.00000
     46       3.2139      2.00000
     47       3.2139      2.00000
     48       3.3002      2.00000
     49       3.3922      2.00000
     50       3.3922      2.00000
     51       3.5755      2.00000
     52       3.5756      2.00000
     53       3.5938      2.00000
     54       3.7400      2.00000
     55       3.7401      2.00000
     56       3.8064      2.00000
     57       6.3390      0.00000
     58       6.7250      0.00000
     59       6.7251      0.00000
     60       7.0800      0.00000
     61       7.4226      0.00000
     62       7.8009      0.00000
     63       7.8009      0.00000
     64       9.1024      0.00000
     65       9.1025      0.00000
     66       9.1414      0.00000
     67       9.5605      0.00000
     68       9.8074      0.00000
     69       9.8137      0.00000
     70      10.1742      0.00000
     71      10.1818      0.00000
     72      10.7446      0.00000

 k-point     4 :       0.3750    0.0000    0.0000
  band No.  band energies     occupation 
      1     -13.9117      2.00000
      2     -13.4010      2.00000
      3     -12.9451      2.00000
      4     -12.9451      2.00000
      5     -12.8474      2.00000
      6     -12.7477      2.00000
      7     -12.7476      2.00000
      8     -12.4111      2.00000
      9     -12.4110      2.00000
     10     -12.3528      2.00000
     11     -12.0905      2.00000
     12     -12.0905      2.00000
     13      -5.9722      2.00000
     14      -5.4483      2.00000
     15      -5.4483      2.00000
     16      -5.0963      2.00000
     17      -5.0962      2.00000
     18      -4.9740      2.00000
     19      -4.1223      2.00000
     20      -2.9520      2.00000
     21      -0.3648      2.00000
     22      -0.3648      2.00000
     23      -0.3576      2.00000
     24      -0.1110      2.00000
     25       0.3118      2.00000
     26       0.3639      2.00000
     27       0.3639      2.00000
     28       0.3906      2.00000
     29       0.8303      2.00000
     30       0.8303      2.00000
     31       0.9769      2.00000
     32       1.3537      2.00000
     33       1.3538      2.00000
     34       1.4883      2.00000
     35       2.0307      2.00000
     36       2.0307      2.00000
     37       2.1327      2.00000
     38       2.1327      2.00000
     39       2.3013      2.00000
     40       2.3013      2.00000
     41       2.5493      2.00000
     42       2.7936      2.00000
     43       2.8054      2.00000
     44       2.8054      2.00000
     45       2.9506      2.00000
     46       3.2091      2.00000
     47       3.2091      2.00000
     48       3.3333      2.00000
     49       3.3784      2.00000
     50       3.3784      2.00000
     51       3.5557      2.00000
     52       3.5644      2.00000
     53       3.5644      2.00000
     54       3.7623      2.00000
     55       3.7624      2.00000
     56       3.7911      2.00000
     57       6.4221      0.00000
     58       7.0525      0.00000
     59       7.1312      0.00000
     60       7.1312      0.00000
     61       7.8179      0.00000
     62       7.9889      0.00000
     63       7.9889      0.00000
     64       8.8108      0.00000
     65       9.0021      0.00000
     66       9.0026      0.00000
     67       9.5159      0.00000
     68       9.6115      0.00000
     69       9.6236      0.00000
     70      10.2065      0.00000
     71      10.2403      0.00000
     72      10.3914      0.00000

 k-point     5 :       0.5000   -0.0000    0.0000
  band No.  band energies     occupation 
      1     -13.8542      2.00000
      2     -13.4902      2.00000
      3     -12.9578      2.00000
      4     -12.9577      2.00000
      5     -12.8480      2.00000
      6     -12.7492      2.00000
      7     -12.7491      2.00000
      8     -12.3616      2.00000
      9     -12.3615      2.00000
     10     -12.3198      2.00000
     11     -12.1267      2.00000
     12     -12.1266      2.00000
     13      -6.0037      2.00000
     14      -5.3264      2.00000
     15      -5.3263      2.00000
     16      -5.2194      2.00000
     17      -5.2194      2.00000
     18      -4.9965      2.00000
     19      -4.0149      2.00000
     20      -2.9455      2.00000
     21      -0.3528      2.00000
     22      -0.3527      2.00000
     23      -0.1605      2.00000
     24       0.0742      2.00000
     25       0.0847      2.00000
     26       0.1037      2.00000
     27       0.3083      2.00000
     28       0.3083      2.00000
     29       0.8214      2.00000
     30       0.8214      2.00000
     31       0.9741      2.00000
     32       1.3656      2.00000
     33       1.3657      2.00000
     34       1.4641      2.00000
     35       2.0029      2.00000
     36       2.0029      2.00000
     37       2.2403      2.00000
     38       2.2404      2.00000
     39       2.2485      2.00000
     40       2.2485      2.00000
     41       2.5925      2.00000
     42       2.8221      2.00000
     43       2.8222      2.00000
     44       2.8230      2.00000
     45       2.9059      2.00000
     46       3.1757      2.00000
     47       3.1757      2.00000
     48       3.3411      2.00000
     49       3.3415      2.00000
     50       3.3415      2.00000
     51       3.5367      2.00000
     52       3.5938      2.00000
     53       3.5939      2.00000
     54       3.7788      2.00000
     55       3.7789      2.00000
     56       3.7843      2.00000
     57       6.4670      0.00000
     58       7.0229      0.00000
     59       7.3387      0.00000
     60       7.3387      0.00000
     61       8.0813      0.00000
     62       8.0813      0.00000
     63       8.1032      0.00000
     64       8.5397      0.00000
     65       8.9419      0.00000
     66       8.9423      0.00000
     67       9.4999      0.00000
     68       9.5093      0.00000
     69       9.5747      0.00000
     70      10.1546      0.00000
     71      10.2255      0.00000
     72      10.3821      0.00000

 k-point     6 :       0.1250    0.1250    0.0000
  band No.  band energies     occupation 
      1     -14.0605      2.00000
      2     -13.0034      2.00000
      3     -12.9184      2.00000
      4     -12.9184      2.00000
      5     -12.8170      2.00000
      6     -12.7362      2.00000
      7     -12.6378      2.00000
      8     -12.6323      2.00000
      9     -12.6323      2.00000
     10     -12.5571      2.00000
     11     -12.0003      2.00000
     12     -11.9842      2.00000
     13      -5.7406      2.00000
     14      -5.6937      2.00000
     15      -5.6937      2.00000
     16      -4.9109      2.00000
     17      -4.8461      2.00000
     18      -4.8461      2.00000
     19      -4.5812      2.00000
     20      -3.0688      2.00000
     21      -0.5105      2.00000
     22      -0.3982      2.00000
     23      -0.3982      2.00000
     24      -0.3508      2.00000
     25       0.6187      2.00000
     26       0.6188      2.00000
     27       0.6947      2.00000
     28       0.8794      2.00000
     29       0.8794      2.00000
     30       0.9260      2.00000
     31       1.0905      2.00000
     32       1.1550      2.00000
     33       1.1550      2.00000
     34       1.7486      2.00000
     35       1.8605      2.00000
     36       1.8876      2.00000
     37       2.1322      2.00000
     38       2.3592      2.00000
     39       2.3592      2.00000
     40       2.4184      2.00000
     41       2.6326      2.00000
     42       2.6536      2.00000
     43       2.6714      2.00000
     44       2.6714      2.00000
     45       3.1075      2.00000
     46       3.2092      2.00000
     47       3.2092      2.00000
     48       3.2481      2.00000
     49       3.2867      2.00000
     50       3.2867      2.00000
     51       3.5892      2.00000
     52       3.6400      2.00000
     53       3.6401      2.00000
     54       3.6894      2.00000
     55       3.8335      2.00000
     56       3.8335      2.00000
     57       6.2883      0.00000
     58       6.4363      0.00000
     59       6.4364      0.00000
     60       7.0173      0.00000
     61       7.1883      0.00000
     62       7.6007      0.00000
     63       7.7361      0.00000
     64       9.0195      0.00000
     65       9.2880      0.00000
     66       9.2881      0.00000
     67       9.8292      0.00000
     68       9.8481      0.00000
     69       9.9177      0.00000
     70      10.1447      0.00000
     71      10.1508      0.00000
     72      11.0046      0.00000

 k-point     7 :       0.2500    0.1250    0.0000
  band No.  band energies     occupation 
      1     -14.0090      2.00000
      2     -13.1668      2.00000
      3     -12.9694      2.00000
      4     -12.9679      2.00000
      5     -12.7874      2.00000
      6     -12.7582      2.00000
      7     -12.6562      2.00000
      8     -12.5600      2.00000
      9     -12.5214      2.00000
     10     -12.4498      2.00000
     11     -12.0419      2.00000
     12     -12.0114      2.00000
     13      -5.8275      2.00000
     14      -5.6465      2.00000
     15      -5.6084      2.00000
     16      -5.0091      2.00000
     17      -4.8957      2.00000
     18      -4.8907      2.00000
     19      -4.3725      2.00000
     20      -3.0146      2.00000
     21      -0.4933      2.00000
     22      -0.3949      2.00000
     23      -0.3903      2.00000
     24      -0.2781      2.00000
     25       0.4982      2.00000
     26       0.5072      2.00000
     27       0.5631      2.00000
     28       0.8145      2.00000
     29       0.8388      2.00000
     30       0.8930      2.00000
     31       1.0535      2.00000
     32       1.2568      2.00000
     33       1.2773      2.00000
     34       1.6245      2.00000
     35       1.8884      2.00000
     36       1.9198      2.00000
     37       1.9562      2.00000
     38       2.2071      2.00000
     39       2.2814      2.00000
     40       2.4108      2.00000
     41       2.6812      2.00000
     42       2.6862      2.00000
     43       2.7373      2.00000
     44       2.7675      2.00000
     45       3.0979      2.00000
     46       3.1580      2.00000
     47       3.2766      2.00000
     48       3.3136      2.00000
     49       3.3625      2.00000
     50       3.3751      2.00000
     51       3.5171      2.00000
     52       3.5598      2.00000
     53       3.6367      2.00000
     54       3.6765      2.00000
     55       3.8121      2.00000
     56       3.8378      2.00000
     57       6.3689      0.00000
     58       6.6759      0.00000
     59       6.7174      0.00000
     60       7.1332      0.00000
     61       7.2972      0.00000
     62       7.6901      0.00000
     63       7.9036      0.00000
     64       8.8253      0.00000
     65       9.2885      0.00000
     66       9.2970      0.00000
     67       9.5294      0.00000
     68       9.8267      0.00000
     69       9.9209      0.00000
     70      10.1377      0.00000
     71      10.2283      0.00000
     72      10.6943      0.00000

 k-point     8 :       0.3750    0.1250    0.0000
  band No.  band energies     occupation 
      1     -13.9232      2.00000
      2     -13.3513      2.00000
      3     -13.0201      2.00000
      4     -12.9973      2.00000
      5     -12.7830      2.00000
      6     -12.7379      2.00000
      7     -12.6745      2.00000
      8     -12.4880      2.00000
      9     -12.4176      2.00000
     10     -12.3443      2.00000
     11     -12.1014      2.00000
     12     -12.0627      2.00000
     13      -5.9217      2.00000
     14      -5.5432      2.00000
     15      -5.4714      2.00000
     16      -5.1347      2.00000
     17      -5.0016      2.00000
     18      -4.9603      2.00000
     19      -4.1140      2.00000
     20      -2.9768      2.00000
     21      -0.4113      2.00000
     22      -0.3651      2.00000
     23      -0.3603      2.00000
     24      -0.1592      2.00000
     25       0.3446      2.00000
     26       0.3730      2.00000
     27       0.4071      2.00000
     28       0.5747      2.00000
     29       0.8043      2.00000
     30       0.8045      2.00000
     31       1.0263      2.00000
     32       1.3452      2.00000
     33       1.3545      2.00000
     34       1.4963      2.00000
     35       1.7822      2.00000
     36       2.0191      2.00000
     37       2.0361      2.00000
     38       2.1133      2.00000
     39       2.2857      2.00000
     40       2.3560      2.00000
     41       2.7021      2.00000
     42       2.7424      2.00000
     43       2.8091      2.00000
     44       2.8334      2.00000
     45       3.0705      2.00000
     46       3.1145      2.00000
     47       3.2672      2.00000
     48       3.3332      2.00000
     49       3.3439      2.00000
     50       3.4315      2.00000
     51       3.5090      2.00000
     52       3.5315      2.00000
     53       3.6005      2.00000
     54       3.7065      2.00000
     55       3.7902      2.00000
     56       3.8405      2.00000
     57       6.4769      0.00000
     58       6.9939      0.00000
     59       7.1293      0.00000
     60       7.1516      0.00000
     61       7.6565      0.00000
     62       7.8964      0.00000
     63       8.0548      0.00000
     64       8.6505      0.00000
     65       8.9896      0.00000
     66       9.2443      0.00000
     67       9.4982      0.00000
     68       9.6425      0.00000
     69       9.7329      0.00000
     70      10.1114      0.00000
     71      10.2276      0.00000
     72      10.3453      0.00000

 k-point     9 :       0.5000    0.1250    0.0000
  band No.  band energies     occupation 
      1     -13.8419      2.00000
      2     -13.4809      2.00000
      3     -13.0568      2.00000
      4     -12.9982      2.00000
      5     -12.7940      2.00000
      6     -12.7072      2.00000
      7     -12.6928      2.00000
      8     -12.4263      2.00000
      9     -12.3613      2.00000
     10     -12.2830      2.00000
     11     -12.1410      2.00000
     12     -12.1192      2.00000
     13      -5.9708      2.00000
     14      -5.4014      2.00000
     15      -5.3711      2.00000
     16      -5.2228      2.00000
     17      -5.1448      2.00000
     18      -5.0064      2.00000
     19      -3.9448      2.00000
     20      -2.9790      2.00000
     21      -0.3773      2.00000
     22      -0.3409      2.00000
     23      -0.1511      2.00000
     24      -0.0068      2.00000
     25       0.1350      2.00000
     26       0.1745      2.00000
     27       0.3293      2.00000
     28       0.3391      2.00000
     29       0.7450      2.00000
     30       0.8139      2.00000
     31       1.0109      2.00000
     32       1.3451      2.00000
     33       1.4015      2.00000
     34       1.4427      2.00000
     35       1.7955      2.00000
     36       1.9012      2.00000
     37       2.1732      2.00000
     38       2.2318      2.00000
     39       2.2823      2.00000
     40       2.3483      2.00000
     41       2.7178      2.00000
     42       2.7880      2.00000
     43       2.8276      2.00000
     44       2.8430      2.00000
     45       3.0424      2.00000
     46       3.0885      2.00000
     47       3.1295      2.00000
     48       3.3382      2.00000
     49       3.3686      2.00000
     50       3.3975      2.00000
     51       3.5078      2.00000
     52       3.5837      2.00000
     53       3.5860      2.00000
     54       3.7211      2.00000
     55       3.7940      2.00000
     56       3.8458      2.00000
     57       6.5479      0.00000
     58       7.0872      0.00000
     59       7.3358      0.00000
     60       7.4218      0.00000
     61       7.9333      0.00000
     62       8.1375      0.00000
     63       8.1576      0.00000
     64       8.4802      0.00000
     65       8.7980      0.00000
     66       9.0409      0.00000
     67       9.4692      0.00000
     68       9.4852      0.00000
     69       9.5799      0.00000
     70      10.0448      0.00000
     71      10.1122      0.00000
     72      10.3922      0.00000

 k-point    10 :      -0.3750    0.1250    0.0000
  band No.  band energies     occupation 
      1     -13.8637      2.00000
      2     -13.4489      2.00000
      3     -13.0685      2.00000
      4     -12.9715      2.00000
      5     -12.8021      2.00000
      6     -12.7129      2.00000
      7     -12.6838      2.00000
      8     -12.4265      2.00000
      9     -12.4027      2.00000
     10     -12.2863      2.00000
     11     -12.1274      2.00000
     12     -12.1079      2.00000
     13      -5.9634      2.00000
     14      -5.4800      2.00000
     15      -5.3328      2.00000
     16      -5.2126      2.00000
     17      -5.1092      2.00000
     18      -5.0014      2.00000
     19      -3.9854      2.00000
     20      -2.9743      2.00000
     21      -0.3790      2.00000
     22      -0.3479      2.00000
     23      -0.2282      2.00000
     24      -0.0546      2.00000
     25       0.1754      2.00000
     26       0.2768      2.00000
     27       0.3608      2.00000
     28       0.3656      2.00000
     29       0.7176      2.00000
     30       0.8566      2.00000
     31       0.9854      2.00000
     32       1.3506      2.00000
     33       1.4086      2.00000
     34       1.4412      2.00000
     35       1.8406      2.00000
     36       1.8966      2.00000
     37       2.1393      2.00000
     38       2.2198      2.00000
     39       2.2308      2.00000
     40       2.4312      2.00000
     41       2.6749      2.00000
     42       2.7794      2.00000
[...]
     67       9.1191      0.00000
     68       9.3130      0.00000
     69       9.6374      0.00000
     70      10.0085      0.00000
     71      10.3461      0.00000
     72      10.4241      0.00000

 k-point    28 :      -0.3750    0.5000    0.1250
  band No.  band energies     occupation 
      1     -13.6428      2.00000
      2     -13.6427      2.00000
      3     -13.1474      2.00000
      4     -13.1474      2.00000
      5     -12.7321      2.00000
      6     -12.7319      2.00000
      7     -12.4628      2.00000
      8     -12.4627      2.00000
      9     -12.2961      2.00000
     10     -12.2961      2.00000
     11     -12.1708      2.00000
     12     -12.1707      2.00000
     13      -5.6870      2.00000
     14      -5.6869      2.00000
     15      -5.4100      2.00000
     16      -5.4100      2.00000
     17      -5.0162      2.00000
     18      -5.0162      2.00000
     19      -3.3702      2.00000
     20      -3.3701      2.00000
     21      -0.4207      2.00000
     22      -0.4207      2.00000
     23       0.0850      2.00000
     24       0.0851      2.00000
     25       0.2540      2.00000
     26       0.2541      2.00000
     27       0.3350      2.00000
     28       0.3350      2.00000
     29       0.6332      2.00000
     30       0.6332      2.00000
     31       1.0062      2.00000
     32       1.0063      2.00000
     33       1.4690      2.00000
     34       1.4690      2.00000
     35       1.6407      2.00000
     36       1.6407      2.00000
     37       1.9628      2.00000
     38       1.9628      2.00000
     39       2.4848      2.00000
     40       2.4849      2.00000
     41       2.6969      2.00000
     42       2.6970      2.00000
     43       2.9039      2.00000
     44       2.9039      2.00000
     45       3.1652      2.00000
     46       3.1652      2.00000
     47       3.2461      2.00000
     48       3.2462      2.00000
     49       3.4268      2.00000
     50       3.4269      2.00000
     51       3.5187      2.00000
     52       3.5188      2.00000
     53       3.6486      2.00000
     54       3.6487      2.00000
     55       3.9223      2.00000
     56       3.9224      2.00000
     57       7.0219      0.00000
     58       7.0219      0.00000
     59       7.6326      0.00000
     60       7.6326      0.00000
     61       8.2843      0.00000
     62       8.2843      0.00000
     63       8.3142      0.00000
     64       8.3142      0.00000
     65       8.5359      0.00000
     66       8.5360      0.00000
     67       9.3112      0.00000
     68       9.3122      0.00000
     69       9.6117      0.00000
     70       9.6167      0.00000
     71      10.2505      0.00000
     72      10.5099      0.00000

 k-point    29 :      -0.2500    0.5000    0.2500
  band No.  band energies     occupation 
      1     -13.6384      2.00000
      2     -13.6383      2.00000
      3     -13.1702      2.00000
      4     -13.1702      2.00000
      5     -12.6610      2.00000
      6     -12.6609      2.00000
      7     -12.5339      2.00000
      8     -12.5338      2.00000
      9     -12.2760      2.00000
     10     -12.2759      2.00000
     11     -12.1726      2.00000
     12     -12.1725      2.00000
     13      -5.7286      2.00000
     14      -5.7285      2.00000
     15      -5.2997      2.00000
     16      -5.2997      2.00000
     17      -5.0893      2.00000
     18      -5.0893      2.00000
     19      -3.3653      2.00000
     20      -3.3652      2.00000
     21      -0.3793      2.00000
     22      -0.3793      2.00000
     23       0.0045      2.00000
     24       0.0046      2.00000
     25       0.3387      2.00000
     26       0.3388      2.00000
     27       0.3621      2.00000
     28       0.3621      2.00000
     29       0.5734      2.00000
     30       0.5735      2.00000
     31       0.8793      2.00000
     32       0.8794      2.00000
     33       1.4789      2.00000
     34       1.4789      2.00000
     35       1.6572      2.00000
     36       1.6572      2.00000
     37       2.2485      2.00000
     38       2.2485      2.00000
     39       2.3338      2.00000
     40       2.3338      2.00000
     41       2.7510      2.00000
     42       2.7511      2.00000
     43       2.8582      2.00000
     44       2.8582      2.00000
     45       3.1659      2.00000
     46       3.1659      2.00000
     47       3.2389      2.00000
     48       3.2389      2.00000
     49       3.3580      2.00000
     50       3.3580      2.00000
     51       3.5669      2.00000
     52       3.5669      2.00000
     53       3.6152      2.00000
     54       3.6153      2.00000
     55       3.9033      2.00000
     56       3.9033      2.00000
     57       7.0465      0.00000
     58       7.0466      0.00000
     59       7.8167      0.00000
     60       7.8168      0.00000
     61       8.0424      0.00000
     62       8.0425      0.00000
     63       8.2490      0.00000
     64       8.2490      0.00000
     65       8.7882      0.00000
     66       8.7884      0.00000
     67       9.0658      0.00000
     68       9.0660      0.00000
     69       9.7885      0.00000
     70       9.7938      0.00000
     71      10.3143      0.00000
     72      10.3559      0.00000


--------------------------------------------------------------------------------------------------------


 soft charge-density along one line, spin component           1
         0         1         2         3         4         5         6         7         8         9
 total charge-density along one line
 
 pseudopotential strength for first ion, spin component:           1
 47.248  53.928   0.050  -0.124   0.071   0.041  -0.102   0.059
 53.928  61.569   0.058  -0.141   0.081   0.047  -0.116   0.067
  0.050   0.058   9.971  -0.003   0.002   8.466  -0.003   0.002
 -0.124  -0.141  -0.003   9.976  -0.004  -0.003   8.471  -0.004
  0.071   0.081   0.002  -0.004   9.972   0.002  -0.004   8.467
  0.041   0.047   8.466  -0.003   0.002   7.261  -0.003   0.002
 -0.102  -0.116  -0.003   8.471  -0.004  -0.003   7.267  -0.004
  0.059   0.067   0.002  -0.004   8.467   0.002  -0.004   7.263
  0.003   0.004   0.006  -0.003   0.001   0.004  -0.003   0.000
 -0.006  -0.006  -0.010   0.005  -0.003  -0.008   0.004  -0.003
  0.006   0.006  -0.003  -0.015  -0.004  -0.002  -0.012  -0.003
 -0.008  -0.009  -0.003   0.008  -0.013  -0.003   0.005  -0.010
  0.001   0.001  -0.008  -0.001   0.008  -0.008  -0.001   0.007
 total augmentation occupancy for first ion, spin component:           1
  2.000   0.000   0.000   0.000   0.000   0.000   0.000   0.000   0.000   0.000   0.000   0.000   0.000
  0.000   0.000   0.000   0.000   0.000   0.000   0.000   0.000   0.000   0.000   0.000   0.000   0.000
  0.000   0.000   1.000   0.000   0.000   0.000   0.000   0.000   0.000   0.000   0.000   0.000   0.000
  0.000   0.000   0.000   1.000   0.000   0.000   0.000   0.000   0.000   0.000   0.000   0.000   0.000
  0.000   0.000   0.000   0.000   1.000   0.000   0.000   0.000   0.000   0.000   0.000   0.000   0.000
  0.000   0.000   0.000   0.000   0.000   0.000   0.000   0.000   0.000   0.000   0.000   0.000   0.000
  0.000   0.000   0.000   0.000   0.000   0.000   0.000   0.000   0.000   0.000   0.000   0.000   0.000
  0.000   0.000   0.000   0.000   0.000   0.000   0.000   0.000   0.000   0.000   0.000   0.000   0.000
  0.000   0.000   0.000   0.000   0.000   0.000   0.000   0.000   0.000   0.000   0.000   0.000   0.000
  0.000   0.000   0.000   0.000   0.000   0.000   0.000   0.000   0.000   0.000   0.000   0.000   0.000
  0.000   0.000   0.000   0.000   0.000   0.000   0.000   0.000   0.000   0.000   0.000   0.000   0.000
  0.000   0.000   0.000   0.000   0.000   0.000   0.000   0.000   0.000   0.000   0.000   0.000   0.000
  0.000   0.000   0.000   0.000   0.000   0.000   0.000   0.000   0.000   0.000   0.000   0.000   0.000


------------------------ aborting loop because EDIFF is reached ----------------------------------------





 total charge

# of ion       s       p       d       tot
------------------------------------------
    1        1.773   1.536   0.288   3.597
    2        1.773   1.536   0.288   3.597
    3        1.773   1.536   0.288   3.597
    4        1.773   1.536   0.288   3.597
    5        1.773   1.536   0.288   3.597
    6        1.773   1.536   0.288   3.597
    7        1.773   1.536   0.288   3.597
    8        1.773   1.536   0.288   3.597
    9        1.573   3.401   0.000   4.974
   10        1.573   3.401   0.000   4.974
   11        1.573   3.401   0.000   4.974
   12        1.573   3.401   0.000   4.974
   13        1.573   3.401   0.000   4.974
   14        1.573   3.401   0.000   4.974
   15        1.573   3.401   0.000   4.974
   16        1.573   3.401   0.000   4.974
   17        1.573   3.401   0.000   4.974
   18        1.573   3.401   0.000   4.974
   19        1.573   3.401   0.000   4.974
   20        1.573   3.401   0.000   4.974
--------------------------------------------------
tot         33.064  53.104   2.302  88.471
 
    CHARGE:  cpu time      0.7714: real time      1.0720
    FORLOC:  cpu time      0.0101: real time      0.0101
    FORNL :  cpu time      0.9789: real time      1.0367
    STRESS:  cpu time      2.7127: real time      2.7377
    FORCOR:  cpu time      0.0220: real time      0.0221
    FORHAR:  cpu time      0.0194: real time      0.0195
    OFIELD:  cpu time      0.0002: real time      0.0002

 ---------------------------------------------------------------------------------------------

         DFTD3 V3.0 Rev 1        
 IVDW         = 12
 DF pbe       
 parameters
 VDW_S6       =    1.0000
 VDW_S8       =    0.7875
 VDW_A1       =    0.4289
 VDW_A2       =    4.4407
 k1-k3        =   16.0000    1.3333   -4.0000
 VDW_RADIUS   =   50.2022 A
 VDW_CNRADIUS =   21.1671 A
 Edisp (eV)   -4.98558

 E6    (eV) :    -2.8130
 E8    (eV) :    -2.1726
 % E8        : 43.58
    FORVDW:  cpu time      0.1132: real time      0.1139

  FORCE on cell =-STRESS in cart. coord.  units (eV):
  Direction    XX          YY          ZZ          XY          YZ          ZX
  --------------------------------------------------------------------------------------
  Alpha Z   119.72332   119.72332   119.72332
  Ewald   -1483.70055 -1483.70067 -1483.70006     0.00017     0.00030     0.00042
  Hartree   771.35738   771.35735   771.35748     0.00004     0.00006     0.00009
  E(xc)    -541.78641  -541.78639  -541.78649    -0.00003    -0.00005    -0.00007
  Local    -923.68083  -923.68082  -923.68085    -0.00001    -0.00001    -0.00002
  n-local   304.96694   304.17758   303.53293     0.50785     0.13325    -0.04708
  augment  -127.77824  -127.77818  -127.77850    -0.00009    -0.00016    -0.00023
  Kinetic  1880.59542  1887.70763  1891.70046    -0.59009    -0.70637    -0.21734
  Fock        0.00000     0.00000     0.00000     0.00000     0.00000     0.00000
  vdW        -4.93048    -4.93048    -4.93048     0.00000     0.00000     0.00000
  -------------------------------------------------------------------------------------
  Total       0.09790     0.09790     0.09790    -0.00000    -0.00000    -0.00000
  in kB       0.44845     0.44845     0.44845    -0.00000    -0.00000    -0.00000
  external pressure =        0.45 kB  Pullay stress =        0.00 kB


 VOLUME and BASIS-vectors are now :
 -----------------------------------------------------------------------------
  energy-cutoff  :      600.00
  volume of cell :      349.77
      direct lattice vectors                 reciprocal lattice vectors
     6.849043438  0.000000000  3.954297073     0.146005790 -0.051620842  0.000000000
     2.283014479  6.457340080  3.954297073     0.000000000  0.154862527  0.000000000
     0.000000000  0.000000000  7.908594145    -0.073002895 -0.051620842  0.126444724

  length of vectors
     7.908594145  7.908594145  7.908594145     0.154862527  0.154862527  0.154862527


 FORCES acting on ions
    electron-ion (+dipol)            ewald-force                    non-local-force                 convergence-correction
 -----------------------------------------------------------------------------------------------
   0.561E+02 0.397E+02 -.972E+02   -.591E+02 -.418E+02 0.102E+03   0.302E+01 0.213E+01 -.523E+01   -.100E-02 -.707E-03 0.172E-02
   0.110E-03 -.119E+03 0.103E-03   0.372E-03 0.125E+03 0.645E-03   -.500E-15 -.640E+01 -.479E-15   -.224E-05 0.212E-02 -.388E-05
   -.112E+03 0.397E+02 0.103E-03   0.118E+03 -.418E+02 0.645E-03   -.604E+01 0.213E+01 -.510E-15   0.199E-02 -.707E-03 -.388E-05
   0.561E+02 0.397E+02 0.972E+02   -.591E+02 -.418E+02 -.102E+03   0.302E+01 0.213E+01 0.523E+01   -.996E-03 -.705E-03 -.173E-02
   -.561E+02 -.397E+02 0.972E+02   0.591E+02 0.418E+02 -.102E+03   -.302E+01 -.213E+01 0.523E+01   0.100E-02 0.707E-03 -.172E-02
   -.556E-03 0.119E+03 -.105E-02   -.372E-03 -.125E+03 -.645E-03   0.486E-15 0.640E+01 0.500E-15   0.225E-05 -.212E-02 0.390E-05
   0.112E+03 -.397E+02 -.105E-02   -.118E+03 0.418E+02 -.645E-03   0.604E+01 -.213E+01 0.496E-15   -.199E-02 0.707E-03 0.390E-05
   -.561E+02 -.397E+02 -.972E+02   0.591E+02 0.418E+02 0.102E+03   -.302E+01 -.213E+01 -.523E+01   0.996E-03 0.705E-03 0.173E-02
   0.570E+02 0.403E+02 -.288E-02   -.656E+02 -.464E+02 -.532E-03   0.863E+01 0.610E+01 0.155E-14   -.702E-02 -.496E-02 0.554E-05
   -.285E+02 0.403E+02 -.493E+02   0.328E+02 -.464E+02 0.568E+02   -.431E+01 0.610E+01 -.747E+01   0.351E-02 -.497E-02 0.608E-02
   0.285E+02 -.403E+02 -.493E+02   -.328E+02 0.464E+02 0.568E+02   0.431E+01 -.610E+01 -.747E+01   -.351E-02 0.496E-02 0.608E-02
   -.570E+02 -.403E+02 -.242E-02   0.656E+02 0.464E+02 0.705E-03   -.863E+01 -.610E+01 -.180E-14   0.702E-02 0.496E-02 -.385E-05
   0.285E+02 -.403E+02 0.493E+02   -.328E+02 0.464E+02 -.568E+02   0.431E+01 -.610E+01 0.747E+01   -.351E-02 0.497E-02 -.607E-02
   -.285E+02 0.403E+02 0.493E+02   0.328E+02 -.464E+02 -.568E+02   -.431E+01 0.610E+01 0.747E+01   0.351E-02 -.496E-02 -.607E-02
   -.570E+02 -.403E+02 -.256E-02   0.656E+02 0.464E+02 0.532E-03   -.863E+01 -.610E+01 -.155E-14   0.702E-02 0.496E-02 -.663E-05
   0.285E+02 -.403E+02 0.493E+02   -.328E+02 0.464E+02 -.568E+02   0.431E+01 -.610E+01 0.747E+01   -.351E-02 0.497E-02 -.607E-02
   -.285E+02 0.403E+02 0.493E+02   0.328E+02 -.464E+02 -.568E+02   -.431E+01 0.610E+01 0.747E+01   0.351E-02 -.496E-02 -.607E-02
   0.570E+02 0.403E+02 -.285E-02   -.656E+02 -.464E+02 -.705E-03   0.863E+01 0.610E+01 0.178E-14   -.702E-02 -.496E-02 0.571E-05
   -.285E+02 0.403E+02 -.493E+02   0.328E+02 -.464E+02 0.568E+02   -.431E+01 0.610E+01 -.747E+01   0.351E-02 -.497E-02 0.607E-02
   0.285E+02 -.403E+02 -.493E+02   -.328E+02 0.464E+02 0.568E+02   0.431E+01 -.610E+01 -.747E+01   -.351E-02 0.496E-02 0.607E-02
 -----------------------------------------------------------------------------------------------
   -.234E-01 -.166E-01 -.367E-01   -.711E-13 -.213E-13 0.426E-13   -.711E-14 0.444E-14 0.533E-14   0.194E-05 0.137E-05 0.243E-05
 
 
 POSITION                                       TOTAL-FORCE (eV/Angst)
 -----------------------------------------------------------------------------------
      8.00462      5.66012      9.86136         0.000526      0.000372     -0.000911
      6.84904      2.39164     11.86289        -0.000000     -0.001116     -0.000000
      4.53787      5.66012     11.86289        -0.001052      0.000372     -0.000000
      8.00462      5.66012     13.86442         0.000526      0.000372      0.000911
      3.41045      2.41155      9.91013        -0.000526     -0.000372      0.000911
      4.56603      5.68003      7.90860         0.000000      0.001116      0.000000
      6.87720      2.41155      7.90860         0.001052     -0.000372      0.000000
      3.41045      2.41155      5.90707        -0.000526     -0.000372     -0.000911
      0.41503      0.29347      3.95430        -0.001007     -0.000712     -0.000000
      3.21701      0.29347      5.57202         0.000503     -0.000712      0.000872
      1.34902      2.93520      5.57202        -0.000503      0.000712      0.000872
      4.15100      2.93520      3.95430         0.001007      0.000712      0.000000
      1.34902      2.93520      2.33657        -0.000503      0.000712     -0.000872
      3.21701      0.29347      2.33657         0.000503     -0.000712     -0.000872
      1.86799      1.32087      7.90859         0.001007      0.000712      0.000000
      5.91505      1.32087     10.24517        -0.000503      0.000712     -0.000872
      3.21701      5.13648     10.24517         0.000503     -0.000712     -0.000872
      7.26407      5.13648      7.90859        -0.001007     -0.000712     -0.000000
      3.21701      5.13648      5.57202         0.000503     -0.000712      0.000872
      5.91505      1.32087      5.57202        -0.000503      0.000712      0.000872
 -----------------------------------------------------------------------------------
    total drift:                               -0.023438     -0.016573     -0.036664


--------------------------------------------------------------------------------------------------------



  FREE ENERGIE OF THE ION-ELECTRON SYSTEM (eV)
  ---------------------------------------------------
  free  energy   TOTEN  =      -118.47922208 eV

  energy  without entropy=     -118.47922208  energy(sigma->0) =     -118.47922208
 


--------------------------------------------------------------------------------------------------------


    POTLOK:  cpu time      0.3483: real time      0.3503


--------------------------------------------------------------------------------------------------------


     LOOP+:  cpu time     36.9767: real time     37.7677
    4ORBIT:  cpu time      0.0000: real time      0.0000



 total charge

# of ion       s       p       d       tot
------------------------------------------
    1        1.773   1.536   0.288   3.597
    2        1.773   1.536   0.288   3.597
    3        1.773   1.536   0.288   3.597
    4        1.773   1.536   0.288   3.597
    5        1.773   1.536   0.288   3.597
    6        1.773   1.536   0.288   3.597
    7        1.773   1.536   0.288   3.597
    8        1.773   1.536   0.288   3.597
    9        1.573   3.401   0.000   4.974
   10        1.573   3.401   0.000   4.974
   11        1.573   3.401   0.000   4.974
   12        1.573   3.401   0.000   4.974
   13        1.573   3.401   0.000   4.974
   14        1.573   3.401   0.000   4.974
   15        1.573   3.401   0.000   4.974
   16        1.573   3.401   0.000   4.974
   17        1.573   3.401   0.000   4.974
   18        1.573   3.401   0.000   4.974
   19        1.573   3.401   0.000   4.974
   20        1.573   3.401   0.000   4.974
--------------------------------------------------
tot         33.064  53.104   2.302  88.471
 
 BZINTS: Fermi energy:    3.944993;  112.000000 electrons
         Band energy:-0.239379E+03;  BLOECHL correction:    0.000000

 total amount of memory used by VASP MPI-rank0    48000. kBytes
=======================================================================

   base      :      30000. kBytes
   nonlr-proj:       6463. kBytes
   fftplans  :       2092. kBytes
   grid      :       3174. kBytes
   one-center:         24. kBytes
   wavefun   :       6247. kBytes
 
  
  
 General timing and accounting informations for this job:
 ========================================================
  
                  Total CPU time used (sec):       57.265
                            User time (sec):       56.028
                          System time (sec):        1.238
                         Elapsed time (sec):       61.519
  
                   Maximum memory used (kb):      264200.
                   Average memory used (kb):          N/A
  
                          Minor page faults:        50858
                          Major page faults:           83
                 Voluntary context switches:         4248
