PROCAR lm decomposed
# of k-points:   29         # of bands:   72         # of ions:   20

 k-point     1 :    0.00000000 0.00000000 0.00000000     weight = 0.00195312

band     1 # energy  -14.09092470 # occ.  2.00000000
 
ion      s     py     pz     px    dxy    dyz    dz2    dxz  x2-y2    tot
    1  0.025  0.000  0.002  0.001  0.000  0.000  0.000  0.000  0.000  0.028
    2  0.025  0.003  0.000  0.000  0.000  0.000  0.000  0.000  0.000  0.028
    3  0.025  0.000  0.000  0.002  0.000  0.000  0.000  0.000  0.000  0.028
    4  0.025  0.000  0.002  0.001  0.000  0.000  0.000  0.000  0.000  0.028
    5  0.025  0.000  0.002  0.001  0.000  0.000  0.000  0.000  0.000  0.028
    6  0.025  0.003  0.000  0.000  0.000  0.000  0.000  0.000  0.000  0.028
    7  0.025  0.000  0.000  0.002  0.000  0.000  0.000  0.000  0.000  0.028
    8  0.025  0.000  0.002  0.001  0.000  0.000  0.000  0.000  0.000  0.028
    9  0.050  0.000  0.000  0.000  0.000  0.000  0.000  0.000  0.000  0.050
   10  0.050  0.000  0.000  0.000  0.000  0.000  0.000  0.000  0.000  0.050
   11  0.050  0.000  0.000  0.000  0.000  0.000  0.000  0.000  0.000  0.050
   12  0.050  0.000  0.000  0.000  0.000  0.000  0.000  0.000  0.000  0.050
   13  0.050  0.000  0.000  0.000  0.000  0.000  0.000  0.000  0.000  0.050
   14  0.050  0.000  0.000  0.000  0.000  0.000  0.000  0.000  0.000  0.050
   15  0.050  0.000  0.000  0.000  0.000  0.000  0.000  0.000  0.000  0.050
   16  0.050  0.000  0.000  0.000  0.000  0.000  0.000  0.000  0.000  0.050
   17  0.050  0.000  0.000  0.000  0.000  0.000  0.000  0.000  0.000  0.050
   18  0.050  0.000  0.000  0.000  0.000  0.000  0.000  0.000  0.000  0.050
   19  0.050  0.000  0.000  0.000  0.000  0.000  0.000  0.000  0.000  0.050
   20  0.050  0.000  0.000  0.000  0.000  0.000  0.000  0.000  0.000  0.050
tot    0.801  0.008  0.008  0.008  0.000  0.000  0.000  0.000  0.000  0.825
 
band     2 # energy  -12.87010048 # occ.  2.00000000
 
ion      s     py     pz     px    dxy    dyz    dz2    dxz  x2-y2    tot
    1  0.015  0.001  0.004  0.001  0.000  0.000  0.000  0.000  0.000  0.020
    2  0.015  0.005  0.000  0.000  0.000  0.000  0.000  0.000  0.000  0.020
    3  0.015  0.001  0.000  0.005  0.000  0.000  0.000  0.000  0.000  0.020
    4  0.015  0.001  0.004  0.001  0.000  0.000  0.000  0.000  0.000  0.020
    5  0.015  0.001  0.004  0.001  0.000  0.000  0.000  0.000  0.000  0.020
    6  0.015  0.005  0.000  0.000  0.000  0.000  0.000  0.000  0.000  0.020
    7  0.015  0.001  0.000  0.005  0.000  0.000  0.000  0.000  0.000  0.020
    8  0.015  0.001  0.004  0.001  0.000  0.000  0.000  0.000  0.000  0.020
    9  0.058  0.000  0.000  0.000  0.000  0.000  0.000  0.000  0.000  0.058
   10  0.058  0.000  0.000  0.000  0.000  0.000  0.000  0.000  0.000  0.059
   11  0.058  0.000  0.000  0.000  0.000  0.000  0.000  0.000  0.000  0.059
   12  0.058  0.000  0.000  0.000  0.000  0.000  0.000  0.000  0.000  0.059
   13  0.058  0.000  0.000  0.000  0.000  0.000  0.000  0.000  0.000  0.058
   14  0.058  0.000  0.000  0.000  0.000  0.000  0.000  0.000  0.000  0.058
   15  0.058  0.000  0.000  0.000  0.000  0.000  0.000  0.000  0.000  0.058
   16  0.058  0.000  0.000  0.000  0.000  0.000  0.000  0.000  0.000  0.059
   17  0.058  0.000  0.000  0.000  0.000  0.000  0.000  0.000  0.000  0.059
   18  0.058  0.000  0.000  0.000  0.000  0.000  0.000  0.000  0.000  0.059
   19  0.058  0.000  0.000  0.000  0.000  0.000  0.000  0.000  0.000  0.058
   20  0.058  0.000  0.000  0.000  0.000  0.000  0.000  0.000  0.000  0.058
tot    0.816  0.016  0.016  0.016  0.000  0.000  0.000  0.000  0.000  0.864
 
band     3 # energy  -12.81867618 # occ.  2.00000000
 
ion      s     py     pz     px    dxy    dyz    dz2    dxz  x2-y2    tot
    1  0.000  0.002  0.000  0.001  0.000  0.000  0.000  0.000  0.002  0.006
    2  0.028  0.003  0.000  0.001  0.000  0.000  0.001  0.000  0.000  0.032
    3  0.025  0.000  0.000  0.003  0.000  0.000  0.001  0.000  0.000  0.029
    4  0.000  0.002  0.000  0.001  0.000  0.000  0.000  0.000  0.002  0.006
    5  0.000  0.002  0.000  0.001  0.000  0.000  0.000  0.000  0.002  0.006
    6  0.028  0.003  0.000  0.001  0.000  0.000  0.001  0.000  0.000  0.032
    7  0.025  0.000  0.000  0.003  0.000  0.000  0.001  0.000  0.000  0.029
    8  0.000  0.002  0.000  0.001  0.000  0.000  0.000  0.000  0.002  0.006
    9  0.000  0.000  0.000  0.000  0.000  0.000  0.000  0.000  0.000  0.001
   10  0.092  0.000  0.000  0.000  0.000  0.000  0.000  0.000  0.000  0.093
   11  0.081  0.000  0.000  0.000  0.000  0.000  0.000  0.000  0.000  0.081
   12  0.000  0.000  0.000  0.000  0.000  0.000  0.000  0.000  0.000  0.000
   13  0.092  0.000  0.000  0.000  0.000  0.000  0.000  0.000  0.000  0.092
   14  0.081  0.000  0.000  0.000  0.000  0.000  0.000  0.000  0.000  0.081
   15  0.000  0.000  0.000  0.000  0.000  0.000  0.000  0.000  0.000  0.001
   16  0.092  0.000  0.000  0.000  0.000  0.000  0.000  0.000  0.000  0.093
   17  0.081  0.000  0.000  0.000  0.000  0.000  0.000  0.000  0.000  0.082
   18  0.000  0.000  0.000  0.000  0.000  0.000  0.000  0.000  0.000  0.000
   19  0.092  0.000  0.000  0.000  0.000  0.000  0.000  0.000  0.000  0.093
   20  0.081  0.000  0.000  0.000  0.000  0.000  0.000  0.000  0.000  0.081
tot    0.800  0.015  0.002  0.013  0.002  0.000  0.002  0.000  0.010  0.845
 
band     4 # energy  -12.81867616 # occ.  2.00000000
 
ion      s     py     pz     px    dxy    dyz    dz2    dxz  x2-y2    tot
    1  0.035  0.000  0.003  0.000  0.000  0.000  0.000  0.000  0.000  0.039
    2  0.007  0.001  0.001  0.001  0.001  0.000  0.000  0.000  0.000  0.013
    3  0.011  0.002  0.001  0.000  0.000  0.000  0.000  0.001  0.001  0.016
    4  0.000  0.001  0.001  0.001  0.000  0.000  0.002  0.001  0.000  0.006
    5  0.035  0.000  0.003  0.000  0.000  0.000  0.000  0.000  0.000  0.039
    6  0.007  0.001  0.001  0.001  0.001  0.000  0.000  0.000  0.000  0.013
    7  0.011  0.002  0.001  0.000  0.000  0.000  0.000  0.001  0.001  0.016
    8  0.000  0.001  0.001  0.001  0.000  0.000  0.002  0.001  0.000  0.006
    9  0.115  0.000  0.000  0.000  0.000  0.000  0.000  0.000  0.000  0.116
   10  0.023  0.000  0.000  0.000  0.000  0.000  0.000  0.000  0.000  0.024
   11  0.035  0.000  0.000  0.000  0.000  0.000  0.000  0.000  0.000  0.035
   12  0.116  0.000  0.000  0.000  0.000  0.000  0.000  0.000  0.000  0.116
   13  0.023  0.000  0.000  0.000  0.000  0.000  0.000  0.000  0.000  0.024
   14  0.034  0.000  0.000  0.000  0.000  0.000  0.000  0.000  0.000  0.035
   15  0.116  0.000  0.000  0.000  0.000  0.000  0.000  0.000  0.000  0.116
   16  0.024  0.000  0.000  0.000  0.000  0.000  0.000  0.000  0.000  0.024
   17  0.035  0.000  0.000  0.000  0.000  0.000  0.000  0.000  0.000  0.035
   18  0.116  0.000  0.000  0.000  0.000  0.000  0.000  0.000  0.000  0.116
   19  0.023  0.000  0.000  0.000  0.000  0.000  0.000  0.000  0.000  0.024
   20  0.035  0.000  0.000  0.000  0.000  0.000  0.000  0.000  0.000  0.035
tot    0.800  0.008  0.014  0.009  0.002  0.002  0.005  0.004  0.002  0.845
 
band     5 # energy  -12.81866211 # occ.  2.00000000
 
ion      s     py     pz     px    dxy    dyz    dz2    dxz  x2-y2    tot
    1  0.004  0.001  0.000  0.002  0.000  0.000  0.002  0.000  0.000  0.010
    2  0.004  0.000  0.002  0.001  0.000  0.001  0.000  0.001  0.000  0.010
    3  0.004  0.001  0.002  0.000  0.000  0.000  0.000  0.001  0.000  0.010
    4  0.039  0.000  0.002  0.001  0.000  0.000  0.000  0.000  0.000  0.043
    5  0.004  0.001  0.000  0.002  0.000  0.000  0.002  0.000  0.000  0.010
    6  0.004  0.000  0.002  0.001  0.000  0.001  0.000  0.001  0.000  0.010
    7  0.004  0.001  0.002  0.000  0.000  0.000  0.000  0.001  0.000  0.010
    8  0.039  0.000  0.002  0.001  0.000  0.000  0.000  0.000  0.000  0.043
    9  0.058  0.000  0.000  0.000  0.000  0.000  0.000  0.000  0.000  0.058
   10  0.058  0.001  0.000  0.000  0.000  0.000  0.000  0.000  0.000  0.058
   11  0.058  0.000  0.000  0.001  0.000  0.000  0.000  0.000  0.000  0.058
   12  0.057  0.000  0.000  0.000  0.000  0.000  0.000  0.000  0.000  0.058
   13  0.058  0.000  0.000  0.000  0.000  0.000  0.000  0.000  0.000  0.058
   14  0.058  0.000  0.000  0.000  0.000  0.000  0.000  0.000  0.000  0.058
   15  0.058  0.000  0.000  0.000  0.000  0.000  0.000  0.000  0.000  0.058
   16  0.058  0.001  0.000  0.000  0.000  0.000  0.000  0.000  0.000  0.058
   17  0.058  0.000  0.000  0.001  0.000  0.000  0.000  0.000  0.000  0.058
   18  0.058  0.000  0.000  0.000  0.000  0.000  0.000  0.000  0.000  0.058
   19  0.058  0.000  0.000  0.000  0.000  0.000  0.000  0.000  0.000  0.058
   20  0.058  0.000  0.000  0.000  0.000  0.000  0.000  0.000  0.000  0.058
tot    0.800  0.007  0.015  0.009  0.001  0.003  0.004  0.006  0.001  0.845
 
band     6 # energy  -12.73756954 # occ.  2.00000000
 
ion      s     py     pz     px    dxy    dyz    dz2    dxz  x2-y2    tot
    1  0.003  0.006  0.001  0.002  0.000  0.000  0.000  0.000  0.001  0.014
    2  0.004  0.001  0.001  0.007  0.001  0.000  0.000  0.000  0.000  0.014
    3  0.014  0.000  0.001  0.005  0.000  0.000  0.000  0.000  0.000  0.020
    4  0.000  0.002  0.001  0.007  0.000  0.000  0.000  0.000  0.001  0.012
    5  0.003  0.006  0.001  0.002  0.000  0.000  0.000  0.000  0.001  0.014
    6  0.004  0.001  0.001  0.007  0.001  0.000  0.000  0.000  0.000  0.014
    7  0.014  0.000  0.001  0.005  0.000  0.000  0.000  0.000  0.000  0.020
    8  0.000  0.002  0.001  0.007  0.000  0.000  0.000  0.000  0.001  0.012
    9  0.029  0.000  0.000  0.000  0.000  0.000  0.000  0.000  0.000  0.029
   10  0.032  0.000  0.000  0.000  0.000  0.000  0.000  0.000  0.000  0.032
   11  0.121  0.000  0.000  0.000  0.000  0.000  0.000  0.000  0.000  0.121
   12  0.029  0.000  0.000  0.000  0.000  0.000  0.000  0.000  0.000  0.029
   13  0.032  0.000  0.000  0.000  0.000  0.000  0.000  0.000  0.000  0.032
   14  0.121  0.000  0.000  0.000  0.000  0.000  0.000  0.000  0.000  0.121
   15  0.029  0.000  0.000  0.000  0.000  0.000  0.000  0.000  0.000  0.029
   16  0.032  0.000  0.000  0.000  0.000  0.000  0.000  0.000  0.000  0.032
   17  0.121  0.000  0.000  0.000  0.000  0.000  0.000  0.000  0.000  0.121
   18  0.029  0.000  0.000  0.000  0.000  0.000  0.000  0.000  0.000  0.029
   19  0.032  0.000  0.000  0.000  0.000  0.000  0.000  0.000  0.000  0.032
   20  0.121  0.000  0.000  0.000  0.000  0.000  0.000  0.000  0.000  0.121
tot    0.767  0.020  0.009  0.044  0.002  0.000  0.001  0.001  0.003  0.847
 
band     7 # energy  -12.73756954 # occ.  2.00000000
 
ion      s     py     pz     px    dxy    dyz    dz2    dxz  x2-y2    tot
    1  0.010  0.001  0.004  0.001  0.000  0.000  0.000  0.000  0.000  0.018
    2  0.010  0.004  0.003  0.001  0.000  0.000  0.000  0.000  0.000  0.018
    3  0.000  0.007  0.003  0.001  0.000  0.000  0.000  0.000  0.001  0.012
    4  0.000  0.007  0.003  0.001  0.000  0.000  0.001  0.000  0.000  0.012
    5  0.010  0.001  0.004  0.001  0.000  0.000  0.000  0.000  0.000  0.018
    6  0.010  0.004  0.003  0.001  0.000  0.000  0.000  0.000  0.000  0.018
    7  0.000  0.007  0.003  0.001  0.000  0.000  0.000  0.000  0.001  0.012
    8  0.000  0.007  0.003  0.001  0.000  0.000  0.001  0.000  0.000  0.012
    9  0.093  0.000  0.000  0.000  0.000  0.000  0.000  0.000  0.000  0.093
   10  0.089  0.000  0.000  0.000  0.000  0.000  0.000  0.000  0.000  0.089
   11  0.000  0.000  0.000  0.000  0.000  0.000  0.000  0.000  0.000  0.000
   12  0.093  0.000  0.000  0.000  0.000  0.000  0.000  0.000  0.000  0.093
   13  0.089  0.000  0.000  0.000  0.000  0.000  0.000  0.000  0.000  0.089
   14  0.000  0.000  0.000  0.000  0.000  0.000  0.000  0.000  0.000  0.000
   15  0.093  0.000  0.000  0.000  0.000  0.000  0.000  0.000  0.000  0.093
   16  0.089  0.000  0.000  0.000  0.000  0.000  0.000  0.000  0.000  0.089
   17  0.000  0.000  0.000  0.000  0.000  0.000  0.000  0.000  0.000  0.000
   18  0.092  0.000  0.000  0.000  0.000  0.000  0.000  0.000  0.000  0.093
   19  0.089  0.000  0.000  0.000  0.000  0.000  0.000  0.000  0.000  0.089
   20  0.000  0.000  0.000  0.000  0.000  0.000  0.000  0.000  0.000  0.000
tot    0.767  0.038  0.026  0.010  0.001  0.001  0.002  0.001  0.002  0.847
 
band     8 # energy  -12.73755201 # occ.  2.00000000
 
ion      s     py     pz     px    dxy    dyz    dz2    dxz  x2-y2    tot
    1  0.002  0.003  0.001  0.006  0.000  0.000  0.001  0.000  0.000  0.013
    2  0.002  0.001  0.007  0.002  0.000  0.001  0.000  0.000  0.000  0.013
    3  0.002  0.003  0.007  0.000  0.000  0.000  0.000  0.001  0.000  0.013
    4  0.015  0.001  0.004  0.001  0.000  0.000  0.000  0.000  0.000  0.021
    5  0.002  0.003  0.001  0.006  0.000  0.000  0.001  0.000  0.000  0.013
    6  0.002  0.001  0.007  0.002  0.000  0.001  0.000  0.000  0.000  0.013
    7  0.002  0.003  0.007  0.000  0.000  0.000  0.000  0.001  0.000  0.013
    8  0.015  0.001  0.004  0.001  0.000  0.000  0.000  0.000  0.000  0.021
    9  0.060  0.000  0.000  0.000  0.000  0.000  0.000  0.000  0.000  0.061
   10  0.061  0.000  0.000  0.000  0.000  0.000  0.000  0.000  0.000  0.061
   11  0.061  0.000  0.000  0.000  0.000  0.000  0.000  0.000  0.000  0.061
   12  0.060  0.000  0.000  0.000  0.000  0.000  0.000  0.000  0.000  0.060
   13  0.061  0.000  0.000  0.000  0.000  0.000  0.000  0.000  0.000  0.061
   14  0.061  0.000  0.000  0.000  0.000  0.000  0.000  0.000  0.000  0.061
   15  0.060  0.000  0.000  0.000  0.000  0.000  0.000  0.000  0.000  0.060
   16  0.061  0.000  0.000  0.000  0.000  0.000  0.000  0.000  0.000  0.061
   17  0.061  0.000  0.000  0.000  0.000  0.000  0.000  0.000  0.000  0.061
   18  0.060  0.000  0.000  0.000  0.000  0.000  0.000  0.000  0.000  0.060
   19  0.061  0.000  0.000  0.000  0.000  0.000  0.000  0.000  0.000  0.061
   20  0.061  0.000  0.000  0.000  0.000  0.000  0.000  0.000  0.000  0.061
tot    0.767  0.015  0.038  0.020  0.001  0.002  0.002  0.003  0.000  0.847
 
band     9 # energy  -12.66194170 # occ.  2.00000000
 
ion      s     py     pz     px    dxy    dyz    dz2    dxz  x2-y2    tot
    1  0.000  0.002  0.004  0.005  0.000  0.000  0.001  0.000  0.000  0.012
    2  0.000  0.000  0.000  0.011  0.001  0.000  0.000  0.000  0.000  0.012
    3  0.000  0.009  0.000  0.001  0.000  0.000  0.000  0.000  0.001  0.012
    4  0.000  0.002  0.004  0.005  0.000  0.000  0.001  0.000  0.000  0.012
    5  0.000  0.002  0.004  0.005  0.000  0.000  0.001  0.000  0.000  0.012
    6  0.000  0.000  0.000  0.011  0.001  0.000  0.000  0.000  0.000  0.012
    7  0.000  0.009  0.000  0.001  0.000  0.000  0.000  0.000  0.001  0.012
    8  0.000  0.002  0.004  0.005  0.000  0.000  0.001  0.000  0.000  0.012
    9  0.124  0.000  0.000  0.000  0.000  0.000  0.000  0.000  0.000  0.124
   10  0.031  0.000  0.000  0.000  0.000  0.000  0.000  0.000  0.000  0.031
   11  0.031  0.000  0.000  0.000  0.000  0.000  0.000  0.000  0.000  0.031
   12  0.123  0.000  0.000  0.000  0.000  0.000  0.000  0.000  0.000  0.124
   13  0.031  0.000  0.000  0.000  0.000  0.000  0.000  0.000  0.000  0.031
   14  0.031  0.000  0.000  0.000  0.000  0.000  0.000  0.000  0.000  0.031
   15  0.124  0.000  0.000  0.000  0.000  0.000  0.000  0.000  0.000  0.124
   16  0.031  0.000  0.000  0.000  0.000  0.000  0.000  0.000  0.000  0.031
   17  0.031  0.000  0.000  0.000  0.000  0.000  0.000  0.000  0.000  0.031
   18  0.124  0.000  0.000  0.000  0.000  0.000  0.000  0.000  0.000  0.124
   19  0.031  0.000  0.000  0.000  0.000  0.000  0.000  0.000  0.000  0.031
   20  0.031  0.000  0.000  0.000  0.000  0.000  0.000  0.000  0.000  0.031
tot    0.742  0.028  0.014  0.043  0.003  0.001  0.005  0.001  0.002  0.839
 
band    10 # energy  -12.66194167 # occ.  2.00000000
 
ion      s     py     pz     px    dxy    dyz    dz2    dxz  x2-y2    tot
    1  0.000  0.007  0.000  0.004  0.000  0.000  0.000  0.000  0.001  0.012
    2  0.000  0.000  0.011  0.000  0.000  0.001  0.000  0.000  0.000  0.012
    3  0.000  0.000  0.011  0.000  0.000  0.000  0.000  0.001  0.000  0.012
    4  0.000  0.007  0.000  0.004  0.000  0.000  0.000  0.000  0.001  0.012
    5  0.000  0.007  0.000  0.004  0.000  0.000  0.000  0.000  0.001  0.012
    6  0.000  0.000  0.011  0.000  0.000  0.001  0.000  0.000  0.000  0.012
    7  0.000  0.000  0.011  0.000  0.000  0.000  0.000  0.001  0.000  0.012
    8  0.000  0.007  0.000  0.003  0.000  0.000  0.000  0.000  0.001  0.012
    9  0.000  0.000  0.000  0.000  0.000  0.000  0.000  0.000  0.000  0.000
   10  0.093  0.000  0.000  0.000  0.000  0.000  0.000  0.000  0.000  0.093
   11  0.092  0.000  0.000  0.000  0.000  0.000  0.000  0.000  0.000  0.092
   12  0.000  0.000  0.000  0.000  0.000  0.000  0.000  0.000  0.000  0.000
   13  0.093  0.000  0.000  0.000  0.000  0.000  0.000  0.000  0.000  0.093
   14  0.093  0.000  0.000  0.000  0.000  0.000  0.000  0.000  0.000  0.093
   15  0.000  0.000  0.000  0.000  0.000  0.000  0.000  0.000  0.000  0.000
   16  0.093  0.000  0.000  0.000  0.000  0.000  0.000  0.000  0.000  0.093
   17  0.092  0.000  0.000  0.000  0.000  0.000  0.000  0.000  0.000  0.093
   18  0.000  0.000  0.000  0.000  0.000  0.000  0.000  0.000  0.000  0.000
   19  0.093  0.000  0.000  0.000  0.000  0.000  0.000  0.000  0.000  0.093
   20  0.093  0.000  0.000  0.000  0.000  0.000  0.000  0.000  0.000  0.093
tot    0.742  0.028  0.043  0.014  0.001  0.003  0.000  0.004  0.005  0.839
 
band    11 # energy  -11.97156456 # occ.  2.00000000
 
ion      s     py     pz     px    dxy    dyz    dz2    dxz  x2-y2    tot
    1  0.000  0.001  0.001  0.002  0.000  0.000  0.002  0.001  0.000  0.007
    2  0.000  0.000  0.000  0.004  0.002  0.000  0.001  0.000  0.000  0.007
    3  0.000  0.004  0.000  0.000  0.000  0.000  0.001  0.000  0.002  0.007
    4  0.000  0.001  0.001  0.002  0.000  0.000  0.002  0.001  0.000  0.007
    5  0.000  0.001  0.001  0.002  0.000  0.000  0.002  0.001  0.000  0.007
    6  0.000  0.000  0.000  0.004  0.002  0.000  0.001  0.000  0.000  0.007
    7  0.000  0.004  0.000  0.000  0.000  0.000  0.001  0.000  0.002  0.007
    8  0.000  0.001  0.001  0.002  0.000  0.000  0.002  0.001  0.000  0.007
    9  0.133  0.000  0.000  0.000  0.000  0.000  0.000  0.000  0.000  0.133
   10  0.033  0.000  0.000  0.000  0.000  0.000  0.000  0.000  0.000  0.033
   11  0.033  0.000  0.000  0.000  0.000  0.000  0.000  0.000  0.000  0.033
   12  0.133  0.000  0.000  0.000  0.000  0.000  0.000  0.000  0.000  0.133
   13  0.033  0.000  0.000  0.000  0.000  0.000  0.000  0.000  0.000  0.033
   14  0.033  0.000  0.000  0.000  0.000  0.000  0.000  0.000  0.000  0.033
   15  0.133  0.000  0.000  0.000  0.000  0.000  0.000  0.000  0.000  0.133
   16  0.033  0.000  0.000  0.000  0.000  0.000  0.000  0.000  0.000  0.033
   17  0.033  0.000  0.000  0.000  0.000  0.000  0.000  0.000  0.000  0.033
   18  0.133  0.000  0.000  0.000  0.000  0.000  0.000  0.000  0.000  0.133
   19  0.033  0.000  0.000  0.000  0.000  0.000  0.000  0.000  0.000  0.033
   20  0.033  0.000  0.000  0.000  0.000  0.000  0.000  0.000  0.000  0.033
tot    0.795  0.011  0.006  0.017  0.005  0.001  0.013  0.003  0.004  0.856
 
band    12 # energy  -11.97156451 # occ.  2.00000000
 
ion      s     py     pz     px    dxy    dyz    dz2    dxz  x2-y2    tot
    1  0.000  0.003  0.000  0.001  0.000  0.000  0.000  0.000  0.003  0.007
    2  0.000  0.000  0.004  0.000  0.000  0.002  0.000  0.002  0.000  0.007
    3  0.000  0.000  0.004  0.000  0.000  0.001  0.000  0.003  0.000  0.007
    4  0.000  0.003  0.000  0.001  0.000  0.000  0.000  0.000  0.003  0.007
    5  0.000  0.003  0.000  0.001  0.000  0.000  0.000  0.000  0.003  0.007
    6  0.000  0.000  0.004  0.000  0.000  0.002  0.000  0.002  0.000  0.007
    7  0.000  0.000  0.004  0.000  0.000  0.001  0.000  0.003  0.000  0.007
    8  0.000  0.003  0.000  0.001  0.000  0.000  0.000  0.000  0.003  0.007
    9  0.000  0.000  0.000  0.000  0.000  0.000  0.000  0.000  0.000  0.000
   10  0.099  0.000  0.000  0.000  0.000  0.000  0.000  0.000  0.000  0.100
   11  0.099  0.000  0.000  0.000  0.000  0.000  0.000  0.000  0.000  0.100
   12  0.000  0.000  0.000  0.000  0.000  0.000  0.000  0.000  0.000  0.000
   13  0.099  0.000  0.000  0.000  0.000  0.000  0.000  0.000  0.000  0.100
   14  0.099  0.000  0.000  0.000  0.000  0.000  0.000  0.000  0.000  0.100
   15  0.000  0.000  0.000  0.000  0.000  0.000  0.000  0.000  0.000  0.000
   16  0.099  0.000  0.000  0.000  0.000  0.000  0.000  0.000  0.000  0.100
   17  0.099  0.000  0.000  0.000  0.000  0.000  0.000  0.000  0.000  0.100
   18  0.000  0.000  0.000  0.000  0.000  0.000  0.000  0.000  0.000  0.000
   19  0.099  0.000  0.000  0.000  0.000  0.000  0.000  0.000  0.000  0.100
   20  0.099  0.000  0.000  0.000  0.000  0.000  0.000  0.000  0.000  0.100
tot    0.795  0.011  0.017  0.006  0.001  0.005  0.000  0.009  0.012  0.856
 
band    13 # energy   -5.71025596 # occ.  2.00000000
 
ion      s     py     pz     px    dxy    dyz    dz2    dxz  x2-y2    tot
    1  0.030  0.001  0.002  0.001  0.000  0.000  0.000  0.000  0.000  0.034
    2  0.030  0.000  0.003  0.001  0.000  0.000  0.000  0.000  0.000  0.034
    3  0.030  0.001  0.003  0.000  0.000  0.000  0.000  0.000  0.000  0.034
    4  0.269  0.000  0.000  0.000  0.000  0.000  0.000  0.000  0.000  0.270
    5  0.030  0.001  0.002  0.001  0.000  0.000  0.000  0.000  0.000  0.034
    6  0.030  0.000  0.003  0.001  0.000  0.000  0.000  0.000  0.000  0.034
    7  0.030  0.001  0.003  0.000  0.000  0.000  0.000  0.000  0.000  0.034
    8  0.270  0.000  0.000  0.000  0.000  0.000  0.000  0.000  0.000  0.270
    9  0.001  0.001  0.000  0.001  0.000  0.000  0.000  0.000  0.000  0.003
   10  0.001  0.017  0.001  0.000  0.000  0.000  0.000  0.000  0.000  0.020
   11  0.001  0.001  0.001  0.017  0.000  0.000  0.000  0.000  0.000  0.020
   12  0.001  0.001  0.017  0.001  0.000  0.000  0.000  0.000  0.000  0.020
   13  0.001  0.002  0.000  0.000  0.000  0.000  0.000  0.000  0.000  0.003
   14  0.001  0.001  0.000  0.001  0.000  0.000  0.000  0.000  0.000  0.003
   15  0.001  0.001  0.000  0.001  0.000  0.000  0.000  0.000  0.000  0.003
   16  0.001  0.017  0.001  0.000  0.000  0.000  0.000  0.000  0.000  0.020
   17  0.001  0.001  0.001  0.017  0.000  0.000  0.000  0.000  0.000  0.020
   18  0.001  0.001  0.017  0.001  0.000  0.000  0.000  0.000  0.000  0.020
   19  0.001  0.002  0.000  0.000  0.000  0.000  0.000  0.000  0.000  0.003
   20  0.001  0.001  0.000  0.001  0.000  0.000  0.000  0.000  0.000  0.003
tot    0.737  0.044  0.057  0.046  0.000  0.001  0.001  0.001  0.000  0.886
 
band    14 # energy   -5.71020447 # occ.  2.00000000
 
ion      s     py     pz     px    dxy    dyz    dz2    dxz  x2-y2    tot
    1  0.008  0.002  0.000  0.002  0.000  0.000  0.000  0.000  0.000  0.012
    2  0.140  0.000  0.000  0.002  0.000  0.000  0.000  0.000  0.000  0.142
    3  0.212  0.001  0.000  0.000  0.000  0.000  0.000  0.000  0.000  0.214
    4  0.000  0.002  0.000  0.002  0.000  0.000  0.000  0.000  0.000  0.005
    5  0.008  0.002  0.000  0.002  0.000  0.000  0.000  0.000  0.000  0.012
    6  0.140  0.000  0.000  0.002  0.000  0.000  0.000  0.000  0.000  0.142
    7  0.212  0.001  0.000  0.000  0.000  0.000  0.000  0.000  0.000  0.213
    8  0.000  0.002  0.000  0.002  0.000  0.000  0.000  0.000  0.000  0.005
    9  0.000  0.018  0.000  0.007  0.000  0.000  0.000  0.000  0.000  0.025
   10  0.002  0.001  0.005  0.001  0.000  0.000  0.000  0.000  0.000  0.009
   11  0.003  0.001  0.007  0.003  0.000  0.000  0.000  0.000  0.000  0.013
   12  0.000  0.001  0.000  0.000  0.000  0.000  0.000  0.000  0.000  0.001
   13  0.002  0.000  0.008  0.005  0.000  0.000  0.000  0.000  0.000  0.014
   14  0.003  0.000  0.005  0.001  0.000  0.000  0.000  0.000  0.000  0.009
   15  0.000  0.018  0.000  0.007  0.000  0.000  0.000  0.000  0.000  0.025
   16  0.002  0.001  0.005  0.001  0.000  0.000  0.000  0.000  0.000  0.009
   17  0.003  0.001  0.007  0.003  0.000  0.000  0.000  0.000  0.000  0.013
   18  0.000  0.001  0.000  0.000  0.000  0.000  0.000  0.000  0.000  0.001
   19  0.002  0.000  0.008  0.005  0.000  0.000  0.000  0.000  0.000  0.014
   20  0.003  0.000  0.005  0.001  0.000  0.000  0.000  0.000  0.000  0.009
tot    0.737  0.053  0.051  0.042  0.000  0.000  0.000  0.000  0.002  0.886
 
band    15 # energy   -5.71020445 # occ.  2.00000000
 
ion      s     py     pz     px    dxy    dyz    dz2    dxz  x2-y2    tot
    1  0.232  0.001  0.000  0.000  0.000  0.000  0.000  0.000  0.000  0.233
    2  0.100  0.000  0.001  0.001  0.000  0.000  0.000  0.000  0.000  0.103
    3  0.027  0.002  0.001  0.000  0.000  0.000  0.000  0.000  0.000  0.032
    4  0.000  0.002  0.001  0.001  0.000  0.000  0.000  0.000  0.000  0.005
    5  0.232  0.001  0.000  0.000  0.000  0.000  0.000  0.000  0.000  0.233
    6  0.100  0.000  0.001  0.001  0.000  0.000  0.000  0.000  0.000  0.103
    7  0.027  0.002  0.001  0.000  0.000  0.000  0.000  0.000  0.000  0.032
    8  0.000  0.002  0.001  0.001  0.000  0.000  0.000  0.000  0.000  0.005
    9  0.003  0.000  0.000  0.004  0.000  0.000  0.000  0.000  0.000  0.007
   10  0.001  0.001  0.002  0.002  0.000  0.000  0.000  0.000  0.000  0.006
   11  0.000  0.001  0.000  0.001  0.000  0.000  0.000  0.000  0.000  0.002
   12  0.003  0.001  0.008  0.002  0.000  0.000  0.000  0.000  0.000  0.014
   13  0.001  0.000  0.001  0.015  0.000  0.000  0.000  0.000  0.000  0.018
   14  0.000  0.018  0.004  0.002  0.000  0.000  0.000  0.000  0.000  0.023
   15  0.003  0.000  0.000  0.004  0.000  0.000  0.000  0.000  0.000  0.007
   16  0.001  0.001  0.002  0.002  0.000  0.000  0.000  0.000  0.000  0.006
   17  0.000  0.001  0.000  0.001  0.000  0.000  0.000  0.000  0.000  0.002
   18  0.003  0.001  0.008  0.002  0.000  0.000  0.000  0.000  0.000  0.014
   19  0.001  0.000  0.001  0.015  0.000  0.000  0.000  0.000  0.000  0.018
   20  0.000  0.018  0.004  0.002  0.000  0.000  0.000  0.000  0.000  0.023
tot    0.737  0.050  0.039  0.058  0.001  0.000  0.001  0.001  0.000  0.886
 
band    16 # energy   -4.82767317 # occ.  2.00000000
 
ion      s     py     pz     px    dxy    dyz    dz2    dxz  x2-y2    tot
    1  0.028  0.001  0.001  0.002  0.000  0.000  0.001  0.000  0.000  0.034
    2  0.028  0.000  0.003  0.001  0.000  0.001  0.000  0.000  0.000  0.034
    3  0.028  0.001  0.003  0.000  0.000  0.000  0.000  0.001  0.000  0.034
    4  0.256  0.000  0.000  0.000  0.000  0.000  0.000  0.000  0.000  0.256
    5  0.028  0.001  0.001  0.002  0.000  0.000  0.001  0.000  0.000  0.034
    6  0.028  0.000  0.003  0.001  0.000  0.001  0.000  0.000  0.000  0.034
    7  0.028  0.001  0.003  0.000  0.000  0.000  0.000  0.001  0.000  0.034
    8  0.256  0.000  0.000  0.000  0.000  0.000  0.000  0.000  0.000  0.256
    9  0.008  0.000  0.001  0.000  0.000  0.000  0.000  0.000  0.000  0.009
   10  0.008  0.012  0.004  0.001  0.000  0.000  0.000  0.000  0.000  0.026
   11  0.008  0.000  0.004  0.013  0.000  0.000  0.000  0.000  0.000  0.026
   12  0.008  0.000  0.018  0.000  0.000  0.000  0.000  0.000  0.000  0.026
   13  0.008  0.001  0.000  0.000  0.000  0.000  0.000  0.000  0.000  0.009
   14  0.008  0.000  0.000  0.001  0.000  0.000  0.000  0.000  0.000  0.009
   15  0.008  0.000  0.001  0.000  0.000  0.000  0.000  0.000  0.000  0.009
   16  0.008  0.012  0.004  0.001  0.000  0.000  0.000  0.000  0.000  0.026
   17  0.008  0.000  0.004  0.013  0.000  0.000  0.000  0.000  0.000  0.026
   18  0.008  0.000  0.018  0.000  0.000  0.000  0.000  0.000  0.000  0.026
   19  0.008  0.001  0.000  0.000  0.000  0.000  0.000  0.000  0.000  0.009
   20  0.008  0.000  0.000  0.001  0.000  0.000  0.000  0.000  0.000  0.009
tot    0.778  0.028  0.070  0.037  0.001  0.002  0.002  0.003  0.000  0.921
 
band    17 # energy   -4.82762010 # occ.  2.00000000
 
ion      s     py     pz     px    dxy    dyz    dz2    dxz  x2-y2    tot
    1  0.052  0.002  0.000  0.002  0.000  0.000  0.000  0.000  0.001  0.057
    2  0.062  0.000  0.000  0.003  0.001  0.000  0.000  0.000  0.000  0.067
    3  0.227  0.000  0.000  0.000  0.000  0.000  0.000  0.000  0.000  0.228
    4  0.000  0.001  0.000  0.003  0.000  0.000  0.000  0.000  0.001  0.006
    5  0.052  0.002  0.000  0.002  0.000  0.000  0.000  0.000  0.001  0.057
    6  0.062  0.000  0.000  0.003  0.001  0.000  0.000  0.000  0.000  0.067
    7  0.227  0.000  0.000  0.000  0.000  0.000  0.000  0.000  0.000  0.228
    8  0.000  0.001  0.000  0.003  0.000  0.000  0.000  0.000  0.001  0.006
    9  0.004  0.014  0.000  0.007  0.000  0.000  0.000  0.000  0.000  0.024
   10  0.004  0.002  0.000  0.002  0.000  0.000  0.000  0.000  0.000  0.008
   11  0.016  0.000  0.002  0.007  0.000  0.000  0.000  0.000  0.000  0.025
   12  0.004  0.001  0.002  0.000  0.000  0.000  0.000  0.000  0.000  0.007
   13  0.004  0.000  0.004  0.015  0.000  0.000  0.000  0.000  0.000  0.024
   14  0.016  0.000  0.000  0.000  0.000  0.000  0.000  0.000  0.000  0.016
   15  0.004  0.014  0.000  0.007  0.000  0.000  0.000  0.000  0.000  0.024
   16  0.004  0.002  0.000  0.002  0.000  0.000  0.000  0.000  0.000  0.008
   17  0.016  0.000  0.002  0.007  0.000  0.000  0.000  0.000  0.000  0.025
   18  0.004  0.001  0.002  0.000  0.000  0.000  0.000  0.000  0.000  0.007
   19  0.004  0.000  0.004  0.015  0.000  0.000  0.000  0.000  0.000  0.024
   20  0.016  0.000  0.000  0.000  0.000  0.000  0.000  0.000  0.000  0.016
tot    0.778  0.038  0.019  0.078  0.002  0.000  0.001  0.001  0.004  0.921
 
band    18 # energy   -4.82762009 # occ.  2.00000000
 
ion      s     py     pz     px    dxy    dyz    dz2    dxz  x2-y2    tot
    1  0.176  0.001  0.000  0.000  0.000  0.000  0.000  0.000  0.000  0.177
    2  0.165  0.000  0.001  0.000  0.000  0.000  0.000  0.000  0.000  0.167
    3  0.000  0.003  0.001  0.000  0.000  0.000  0.000  0.000  0.001  0.006
    4  0.000  0.003  0.001  0.000  0.000  0.000  0.001  0.000  0.000  0.006