unknown system                          
           1
     6.849043    0.000000    3.954297
     2.283014    6.457340    3.954297
     0.000000    0.000000    7.908594
   Bi   O 
     8    12
Direct configuration=     1
   0.87654112  0.87654112  0.37037563
   0.87654112  0.37037563  0.87654112
   0.37037563  0.87654112  0.87654112
   0.87654112  0.87654112  0.87654112
   0.37345888  0.37345888  0.87962437
   0.37345888  0.87962437  0.37345888
   0.87962437  0.37345888  0.37345888
   0.37345888  0.37345888  0.37345888
   0.04544750  0.04544750  0.45455250
   0.45455250  0.04544750  0.45455250
   0.04544750  0.45455250  0.45455250
   0.45455250  0.45455250  0.04544750
   0.04544750  0.45455250  0.04544750
   0.45455250  0.04544750  0.04544750
   0.20455250  0.20455250  0.79544750
   0.79544750  0.20455250  0.79544750
   0.20455250  0.79544750  0.79544750
   0.79544750  0.79544750  0.20455250
   0.20455250  0.79544750  0.20455250
   0.79544750  0.20455250  0.20455250
