  22  22   0   0
  0.1420100E+02  0.5010501E-09  0.5010501E-09  0.1436974E-08  0.5000000E-15
  1.000000000000000E-004
  CAR 
 unknown system                          
     16.02754356    -45.92184766  301     -1.29247374      1.00000000
    -45.922  0.0000E+00  0.0000E+00  0.0000E+00  0.0000E+00
    -45.715  0.0000E+00  0.0000E+00  0.0000E+00  0.0000E+00
    -45.509  0.0000E+00  0.0000E+00  0.0000E+00  0.0000E+00
    -45.302  0.0000E+00  0.0000E+00  0.0000E+00  0.0000E+00
    -45.096  0.0000E+00  0.0000E+00  0.0000E+00  0.0000E+00
    -44.889  0.0000E+00  0.0000E+00  0.0000E+00  0.0000E+00
    -44.683  0.0000E+00  0.0000E+00  0.0000E+00  0.0000E+00
    -44.476  0.0000E+00  0.0000E+00  0.0000E+00  0.0000E+00
    -44.270  0.0000E+00  0.0000E+00  0.0000E+00  0.0000E+00
    -44.063  0.0000E+00  0.0000E+00  0.0000E+00  0.0000E+00
    -43.857  0.0000E+00  0.0000E+00  0.0000E+00  0.0000E+00
    -43.650  0.0000E+00  0.0000E+00  0.0000E+00  0.0000E+00
    -43.444  0.0000E+00  0.0000E+00  0.0000E+00  0.0000E+00
    -43.237  0.2133E-02  0.1545E-04  0.4405E-03  0.3190E-05
    -43.031  0.2835E+02  0.1984E+02  0.5855E+01  0.4096E+01
    -42.824  0.7024E+00  0.9218E+01  0.6000E+01  0.6000E+01
    -42.618  0.0000E+00  0.2523E-06  0.6000E+01  0.6000E+01
    -42.411  0.0000E+00  0.0000E+00  0.6000E+01  0.6000E+01
    -42.205  0.0000E+00  0.0000E+00  0.6000E+01  0.6000E+01
    -41.998  0.0000E+00  0.0000E+00  0.6000E+01  0.6000E+01
    -41.792  0.2259E-08  0.0000E+00  0.6000E+01  0.6000E+01
    -41.585  0.5996E+01  0.0000E+00  0.7238E+01  0.6000E+01
    -41.379  0.1337E+02  0.0000E+00  0.1000E+02  0.6000E+01
    -41.172  0.5847E+00  0.0000E+00  0.1012E+02  0.6000E+01
    -40.966  0.9101E+01  0.1112E-02  0.1200E+02  0.6000E+01
    -40.759  0.8693E-04  0.1891E+02  0.1200E+02  0.9905E+01
    -40.553  0.0000E+00  0.4580E+00  0.1200E+02  0.1000E+02
    -40.346  0.0000E+00  0.0000E+00  0.1200E+02  0.1000E+02
    -40.140  0.0000E+00  0.0000E+00  0.1200E+02  0.1000E+02
    -39.933  0.0000E+00  0.5376E-15  0.1200E+02  0.1000E+02
    -39.727  0.0000E+00  0.5983E-01  0.1200E+02  0.1001E+02
    -39.520  0.0000E+00  0.9621E+01  0.1200E+02  0.1200E+02
    -39.314  0.0000E+00  0.4075E-02  0.1200E+02  0.1200E+02
    -39.107  0.0000E+00  0.0000E+00  0.1200E+02  0.1200E+02
    -38.901  0.0000E+00  0.0000E+00  0.1200E+02  0.1200E+02
    -38.694  0.0000E+00  0.0000E+00  0.1200E+02  0.1200E+02
    -38.488  0.0000E+00  0.0000E+00  0.1200E+02  0.1200E+02
    -38.281  0.0000E+00  0.0000E+00  0.1200E+02  0.1200E+02
    -38.075  0.0000E+00  0.0000E+00  0.1200E+02  0.1200E+02
    -37.868  0.0000E+00  0.0000E+00  0.1200E+02  0.1200E+02
    -37.662  0.0000E+00  0.0000E+00  0.1200E+02  0.1200E+02
    -37.455  0.0000E+00  0.0000E+00  0.1200E+02  0.1200E+02
    -37.249  0.0000E+00  0.0000E+00  0.1200E+02  0.1200E+02
    -37.042  0.0000E+00  0.0000E+00  0.1200E+02  0.1200E+02
    -36.836  0.0000E+00  0.0000E+00  0.1200E+02  0.1200E+02
    -36.629  0.0000E+00  0.0000E+00  0.1200E+02  0.1200E+02
    -36.423  0.0000E+00  0.0000E+00  0.1200E+02  0.1200E+02
    -36.216  0.0000E+00  0.0000E+00  0.1200E+02  0.1200E+02
    -36.010  0.0000E+00  0.0000E+00  0.1200E+02  0.1200E+02
    -35.803  0.0000E+00  0.0000E+00  0.1200E+02  0.1200E+02
    -35.597  0.0000E+00  0.0000E+00  0.1200E+02  0.1200E+02
    -35.390  0.0000E+00  0.0000E+00  0.1200E+02  0.1200E+02
    -35.184  0.0000E+00  0.0000E+00  0.1200E+02  0.1200E+02
    -34.977  0.0000E+00  0.0000E+00  0.1200E+02  0.1200E+02
    -34.771  0.0000E+00  0.0000E+00  0.1200E+02  0.1200E+02
    -34.564  0.0000E+00  0.0000E+00  0.1200E+02  0.1200E+02
    -34.358  0.0000E+00  0.0000E+00  0.1200E+02  0.1200E+02
    -34.151  0.0000E+00  0.0000E+00  0.1200E+02  0.1200E+02
    -33.945  0.0000E+00  0.0000E+00  0.1200E+02  0.1200E+02
    -33.738  0.0000E+00  0.0000E+00  0.1200E+02  0.1200E+02
    -33.532  0.0000E+00  0.0000E+00  0.1200E+02  0.1200E+02
    -33.325  0.0000E+00  0.0000E+00  0.1200E+02  0.1200E+02
    -33.119  0.0000E+00  0.0000E+00  0.1200E+02  0.1200E+02
    -32.912  0.0000E+00  0.0000E+00  0.1200E+02  0.1200E+02
    -32.706  0.0000E+00  0.0000E+00  0.1200E+02  0.1200E+02
    -32.499  0.0000E+00  0.0000E+00  0.1200E+02  0.1200E+02
    -32.293  0.0000E+00  0.0000E+00  0.1200E+02  0.1200E+02
    -32.086  0.0000E+00  0.0000E+00  0.1200E+02  0.1200E+02
    -31.880  0.0000E+00  0.0000E+00  0.1200E+02  0.1200E+02
    -31.673  0.0000E+00  0.0000E+00  0.1200E+02  0.1200E+02
    -31.467  0.0000E+00  0.0000E+00  0.1200E+02  0.1200E+02
    -31.260  0.0000E+00  0.0000E+00  0.1200E+02  0.1200E+02
    -31.054  0.0000E+00  0.0000E+00  0.1200E+02  0.1200E+02
    -30.847  0.0000E+00  0.0000E+00  0.1200E+02  0.1200E+02
    -30.641  0.0000E+00  0.0000E+00  0.1200E+02  0.1200E+02
    -30.434  0.0000E+00  0.0000E+00  0.1200E+02  0.1200E+02
    -30.228  0.0000E+00  0.0000E+00  0.1200E+02  0.1200E+02
    -30.022  0.0000E+00  0.0000E+00  0.1200E+02  0.1200E+02
    -29.815  0.0000E+00  0.0000E+00  0.1200E+02  0.1200E+02
    -29.609  0.0000E+00  0.0000E+00  0.1200E+02  0.1200E+02
    -29.402  0.0000E+00  0.0000E+00  0.1200E+02  0.1200E+02
    -29.196  0.0000E+00  0.0000E+00  0.1200E+02  0.1200E+02
    -28.989  0.0000E+00  0.0000E+00  0.1200E+02  0.1200E+02
    -28.783  0.0000E+00  0.0000E+00  0.1200E+02  0.1200E+02
    -28.576  0.0000E+00  0.0000E+00  0.1200E+02  0.1200E+02
    -28.370  0.0000E+00  0.0000E+00  0.1200E+02  0.1200E+02
    -28.163  0.0000E+00  0.0000E+00  0.1200E+02  0.1200E+02
    -27.957  0.0000E+00  0.0000E+00  0.1200E+02  0.1200E+02
    -27.750  0.0000E+00  0.0000E+00  0.1200E+02  0.1200E+02
    -27.544  0.0000E+00  0.0000E+00  0.1200E+02  0.1200E+02
    -27.337  0.0000E+00  0.0000E+00  0.1200E+02  0.1200E+02
    -27.131  0.0000E+00  0.0000E+00  0.1200E+02  0.1200E+02
    -26.924  0.0000E+00  0.0000E+00  0.1200E+02  0.1200E+02
    -26.718  0.0000E+00  0.0000E+00  0.1200E+02  0.1200E+02
    -26.511  0.0000E+00  0.0000E+00  0.1200E+02  0.1200E+02
    -26.305  0.0000E+00  0.0000E+00  0.1200E+02  0.1200E+02
    -26.098  0.0000E+00  0.0000E+00  0.1200E+02  0.1200E+02
    -25.892  0.0000E+00  0.0000E+00  0.1200E+02  0.1200E+02
    -25.685  0.0000E+00  0.0000E+00  0.1200E+02  0.1200E+02
    -25.479  0.0000E+00  0.0000E+00  0.1200E+02  0.1200E+02
    -25.272  0.1039E-10  0.1214E-10  0.1200E+02  0.1200E+02
    -25.066  0.2110E+00  0.2186E+00  0.1204E+02  0.1205E+02
    -24.859  0.9307E+01  0.9304E+01  0.1397E+02  0.1397E+02
    -24.653  0.1039E+01  0.1272E+01  0.1418E+02  0.1423E+02
    -24.446  0.1863E+02  0.1838E+02  0.1803E+02  0.1802E+02
    -24.240  0.9537E+01  0.9548E+01  0.2000E+02  0.2000E+02
    -24.033  0.2821E+01  0.3017E+01  0.2058E+02  0.2062E+02
    -23.827  0.1657E+02  0.1638E+02  0.2400E+02  0.2400E+02
    -23.620  0.2373E+00  0.9586E-01  0.2405E+02  0.2402E+02
    -23.414  0.1081E+02  0.1043E+02  0.2628E+02  0.2617E+02
    -23.207  0.1800E+02  0.1852E+02  0.3000E+02  0.3000E+02
    -23.001  0.6250E-02  0.9016E-02  0.3000E+02  0.3000E+02
    -22.794  0.0000E+00  0.0000E+00  0.3000E+02  0.3000E+02
    -22.588  0.0000E+00  0.0000E+00  0.3000E+02  0.3000E+02
    -22.381  0.0000E+00  0.0000E+00  0.3000E+02  0.3000E+02
    -22.175  0.0000E+00  0.0000E+00  0.3000E+02  0.3000E+02
    -21.968  0.0000E+00  0.0000E+00  0.3000E+02  0.3000E+02
    -21.762  0.0000E+00  0.0000E+00  0.3000E+02  0.3000E+02
    -21.555  0.0000E+00  0.0000E+00  0.3000E+02  0.3000E+02
    -21.349  0.0000E+00  0.0000E+00  0.3000E+02  0.3000E+02
    -21.142  0.0000E+00  0.0000E+00  0.3000E+02  0.3000E+02
    -20.936  0.0000E+00  0.0000E+00  0.3000E+02  0.3000E+02
    -20.729  0.0000E+00  0.0000E+00  0.3000E+02  0.3000E+02
    -20.523  0.0000E+00  0.0000E+00  0.3000E+02  0.3000E+02
    -20.316  0.0000E+00  0.0000E+00  0.3000E+02  0.3000E+02
    -20.110  0.0000E+00  0.0000E+00  0.3000E+02  0.3000E+02
    -19.903  0.0000E+00  0.0000E+00  0.3000E+02  0.3000E+02
    -19.697  0.0000E+00  0.0000E+00  0.3000E+02  0.3000E+02
    -19.490  0.0000E+00  0.0000E+00  0.3000E+02  0.3000E+02
    -19.284  0.0000E+00  0.0000E+00  0.3000E+02  0.3000E+02
    -19.077  0.0000E+00  0.0000E+00  0.3000E+02  0.3000E+02
    -18.871  0.0000E+00  0.0000E+00  0.3000E+02  0.3000E+02
    -18.664  0.0000E+00  0.0000E+00  0.3000E+02  0.3000E+02
    -18.458  0.0000E+00  0.0000E+00  0.3000E+02  0.3000E+02
    -18.251  0.0000E+00  0.0000E+00  0.3000E+02  0.3000E+02
    -18.045  0.0000E+00  0.0000E+00  0.3000E+02  0.3000E+02
    -17.838  0.0000E+00  0.0000E+00  0.3000E+02  0.3000E+02
    -17.632  0.0000E+00  0.0000E+00  0.3000E+02  0.3000E+02
    -17.425  0.0000E+00  0.0000E+00  0.3000E+02  0.3000E+02
    -17.219  0.0000E+00  0.0000E+00  0.3000E+02  0.3000E+02
    -17.012  0.0000E+00  0.0000E+00  0.3000E+02  0.3000E+02
    -16.806  0.0000E+00  0.0000E+00  0.3000E+02  0.3000E+02
    -16.599  0.0000E+00  0.0000E+00  0.3000E+02  0.3000E+02
    -16.393  0.0000E+00  0.0000E+00  0.3000E+02  0.3000E+02
    -16.186  0.0000E+00  0.0000E+00  0.3000E+02  0.3000E+02
    -15.980  0.0000E+00  0.0000E+00  0.3000E+02  0.3000E+02
    -15.773  0.0000E+00  0.0000E+00  0.3000E+02  0.3000E+02
    -15.567  0.0000E+00  0.0000E+00  0.3000E+02  0.3000E+02
    -15.360  0.0000E+00  0.0000E+00  0.3000E+02  0.3000E+02
    -15.154  0.0000E+00  0.0000E+00  0.3000E+02  0.3000E+02
    -14.947  0.0000E+00  0.0000E+00  0.3000E+02  0.3000E+02
    -14.741  0.0000E+00  0.0000E+00  0.3000E+02  0.3000E+02
    -14.534  0.0000E+00  0.0000E+00  0.3000E+02  0.3000E+02
    -14.328  0.0000E+00  0.0000E+00  0.3000E+02  0.3000E+02
    -14.121  0.0000E+00  0.0000E+00  0.3000E+02  0.3000E+02
    -13.915  0.0000E+00  0.0000E+00  0.3000E+02  0.3000E+02
    -13.708  0.0000E+00  0.0000E+00  0.3000E+02  0.3000E+02
    -13.502  0.0000E+00  0.0000E+00  0.3000E+02  0.3000E+02
    -13.295  0.0000E+00  0.0000E+00  0.3000E+02  0.3000E+02
    -13.089  0.0000E+00  0.0000E+00  0.3000E+02  0.3000E+02
    -12.882  0.0000E+00  0.0000E+00  0.3000E+02  0.3000E+02
    -12.676  0.0000E+00  0.0000E+00  0.3000E+02  0.3000E+02
    -12.469  0.0000E+00  0.0000E+00  0.3000E+02  0.3000E+02
    -12.263  0.0000E+00  0.0000E+00  0.3000E+02  0.3000E+02
    -12.056  0.0000E+00  0.0000E+00  0.3000E+02  0.3000E+02
    -11.850  0.0000E+00  0.0000E+00  0.3000E+02  0.3000E+02
    -11.643  0.0000E+00  0.0000E+00  0.3000E+02  0.3000E+02
    -11.437  0.0000E+00  0.0000E+00  0.3000E+02  0.3000E+02
    -11.230  0.0000E+00  0.0000E+00  0.3000E+02  0.3000E+02
    -11.024  0.0000E+00  0.0000E+00  0.3000E+02  0.3000E+02
    -10.817  0.0000E+00  0.0000E+00  0.3000E+02  0.3000E+02
    -10.611  0.0000E+00  0.0000E+00  0.3000E+02  0.3000E+02
    -10.404  0.0000E+00  0.0000E+00  0.3000E+02  0.3000E+02
    -10.198  0.0000E+00  0.0000E+00  0.3000E+02  0.3000E+02
     -9.991  0.0000E+00  0.0000E+00  0.3000E+02  0.3000E+02
     -9.785  0.0000E+00  0.0000E+00  0.3000E+02  0.3000E+02
     -9.578  0.0000E+00  0.0000E+00  0.3000E+02  0.3000E+02
     -9.372  0.0000E+00  0.0000E+00  0.3000E+02  0.3000E+02
     -9.165  0.0000E+00  0.0000E+00  0.3000E+02  0.3000E+02
     -8.959  0.0000E+00  0.0000E+00  0.3000E+02  0.3000E+02
     -8.752  0.0000E+00  0.0000E+00  0.3000E+02  0.3000E+02
     -8.546  0.0000E+00  0.0000E+00  0.3000E+02  0.3000E+02
     -8.339  0.0000E+00  0.0000E+00  0.3000E+02  0.3000E+02
     -8.133  0.2083E-11  0.1380E-12  0.3000E+02  0.3000E+02
     -7.926  0.2812E+00  0.1377E+00  0.3006E+02  0.3003E+02
     -7.720  0.1758E+02  0.1361E+02  0.3369E+02  0.3284E+02
     -7.513  0.1116E+02  0.9110E+01  0.3599E+02  0.3472E+02
     -7.307  0.2165E+01  0.6856E+01  0.3644E+02  0.3614E+02
     -7.100  0.1637E+02  0.1448E+02  0.3982E+02  0.3913E+02
     -6.894  0.8941E+01  0.1146E+02  0.4167E+02  0.4149E+02
     -6.687  0.2246E+01  0.2470E+01  0.4213E+02  0.4200E+02
     -6.481  0.1634E+02  0.1130E+02  0.4550E+02  0.4434E+02
     -6.274  0.1224E+02  0.1521E+02  0.4803E+02  0.4748E+02
     -6.068  0.1110E+02  0.6806E+01  0.5032E+02  0.4888E+02
     -5.861  0.1584E+02  0.1941E+02  0.5359E+02  0.5289E+02
     -5.655  0.1154E+02  0.1053E+02  0.5598E+02  0.5506E+02
     -5.448  0.1673E+02  0.1662E+02  0.5943E+02  0.5850E+02
     -5.242  0.2173E+02  0.1684E+02  0.6392E+02  0.6197E+02
     -5.035  0.1839E+02  0.1857E+02  0.6772E+02  0.6581E+02
     -4.829  0.1828E+02  0.1985E+02  0.7149E+02  0.6991E+02
     -4.622  0.3576E+01  0.1141E+02  0.7223E+02  0.7226E+02
     -4.416  0.1106E+02  0.1085E+02  0.7452E+02  0.7450E+02
     -4.209  0.1920E+02  0.1769E+02  0.7848E+02  0.7816E+02
     -4.003  0.1844E+02  0.1977E+02  0.8229E+02  0.8224E+02
     -3.796  0.7827E+01  0.8451E+01  0.8390E+02  0.8399E+02
     -3.590  0.4642E+00  0.6695E-01  0.8400E+02  0.8400E+02
     -3.383  0.0000E+00  0.0000E+00  0.8400E+02  0.8400E+02
     -3.177  0.0000E+00  0.0000E+00  0.8400E+02  0.8400E+02
     -2.970  0.0000E+00  0.0000E+00  0.8400E+02  0.8400E+02
     -2.764  0.0000E+00  0.0000E+00  0.8400E+02  0.8400E+02
     -2.557  0.0000E+00  0.0000E+00  0.8400E+02  0.8400E+02
     -2.351  0.0000E+00  0.0000E+00  0.8400E+02  0.8400E+02
     -2.144  0.0000E+00  0.0000E+00  0.8400E+02  0.8400E+02
     -1.938  0.3507E-10  0.0000E+00  0.8400E+02  0.8400E+02
     -1.731  0.3092E+00  0.0000E+00  0.8406E+02  0.8400E+02
     -1.525  0.9369E+01  0.0000E+00  0.8600E+02  0.8400E+02
     -1.318  0.7294E-02  0.0000E+00  0.8600E+02  0.8400E+02
     -1.112  0.4178E-03  0.1181E-10  0.8600E+02  0.8400E+02
     -0.905  0.1157E+02  0.7364E+00  0.8839E+02  0.8415E+02
     -0.699  0.1748E+02  0.2816E+02  0.9200E+02  0.8997E+02
     -0.492  0.6794E-03  0.1594E+00  0.9200E+02  0.9000E+02
     -0.286  0.0000E+00  0.0000E+00  0.9200E+02  0.9000E+02
     -0.079  0.0000E+00  0.0000E+00  0.9200E+02  0.9000E+02
      0.127  0.0000E+00  0.0000E+00  0.9200E+02  0.9000E+02
      0.334  0.7618E-02  0.0000E+00  0.9200E+02  0.9000E+02
      0.540  0.1833E+02  0.0000E+00  0.9579E+02  0.9000E+02
      0.747  0.1033E+01  0.1024E-13  0.9600E+02  0.9000E+02
      0.953  0.1894E-10  0.8636E-01  0.9600E+02  0.9002E+02
      1.160  0.1987E+01  0.1909E+02  0.9641E+02  0.9396E+02
      1.366  0.1738E+02  0.1950E+02  0.1000E+03  0.9799E+02
      1.573  0.6816E-04  0.6221E-01  0.1000E+03  0.9800E+02
      1.779  0.8888E-15  0.0000E+00  0.1000E+03  0.9800E+02
      1.986  0.7680E-01  0.1737E-10  0.1000E+03  0.9800E+02
      2.192  0.1926E+02  0.1216E+01  0.1040E+03  0.9825E+02
      2.399  0.2969E-01  0.8469E+01  0.1040E+03  0.1000E+03
      2.605  0.0000E+00  0.1723E+02  0.1040E+03  0.1036E+03
      2.812  0.0000E+00  0.2143E+01  0.1040E+03  0.1040E+03
      3.018  0.0000E+00  0.0000E+00  0.1040E+03  0.1040E+03
      3.225  0.0000E+00  0.0000E+00  0.1040E+03  0.1040E+03
      3.431  0.0000E+00  0.0000E+00  0.1040E+03  0.1040E+03
      3.638  0.0000E+00  0.0000E+00  0.1040E+03  0.1040E+03
      3.844  0.0000E+00  0.0000E+00  0.1040E+03  0.1040E+03
      4.051  0.0000E+00  0.0000E+00  0.1040E+03  0.1040E+03
      4.257  0.0000E+00  0.0000E+00  0.1040E+03  0.1040E+03
      4.464  0.0000E+00  0.0000E+00  0.1040E+03  0.1040E+03
      4.670  0.0000E+00  0.0000E+00  0.1040E+03  0.1040E+03
      4.877  0.2664E-12  0.5486E-17  0.1040E+03  0.1040E+03
      5.083  0.8390E-02  0.4466E-03  0.1040E+03  0.1040E+03
      5.290  0.4756E-01  0.4906E-01  0.1040E+03  0.1040E+03
      5.496  0.3884E+00  0.3838E+00  0.1041E+03  0.1041E+03
      5.703  0.5737E+00  0.4200E+00  0.1042E+03  0.1042E+03
      5.909  0.3142E+00  0.4444E+00  0.1043E+03  0.1043E+03
      6.116  0.7901E+00  0.4780E+00  0.1044E+03  0.1044E+03
      6.322  0.6876E+00  0.7220E+00  0.1046E+03  0.1045E+03
      6.529  0.6985E+00  0.9923E+00  0.1047E+03  0.1047E+03
      6.735  0.6082E+00  0.5362E+00  0.1049E+03  0.1048E+03
      6.942  0.1764E+01  0.1406E+01  0.1052E+03  0.1051E+03
      7.148  0.8918E+00  0.1329E+01  0.1054E+03  0.1054E+03
      7.355  0.6884E+00  0.6590E+00  0.1055E+03  0.1055E+03
      7.561  0.1833E+01  0.1227E+01  0.1059E+03  0.1058E+03
      7.768  0.1727E+01  0.1451E+01  0.1063E+03  0.1061E+03
      7.974  0.1305E+01  0.1935E+01  0.1065E+03  0.1065E+03
      8.181  0.1503E+01  0.1328E+01  0.1069E+03  0.1068E+03
      8.387  0.8028E+00  0.1175E+01  0.1070E+03  0.1070E+03
      8.594  0.2394E+01  0.2218E+01  0.1075E+03  0.1075E+03
      8.800  0.1989E+01  0.1897E+01  0.1079E+03  0.1079E+03
      9.007  0.2050E+01  0.1868E+01  0.1083E+03  0.1082E+03
      9.213  0.2160E+01  0.2210E+01  0.1088E+03  0.1087E+03
      9.420  0.2691E+01  0.3099E+01  0.1094E+03  0.1093E+03
      9.626  0.2303E+01  0.1812E+01  0.1098E+03  0.1097E+03
      9.833  0.3184E+01  0.2955E+01  0.1105E+03  0.1103E+03
     10.039  0.1272E+01  0.1318E+01  0.1107E+03  0.1106E+03
     10.246  0.4643E+01  0.4328E+01  0.1117E+03  0.1115E+03
     10.452  0.1670E+01  0.2349E+01  0.1121E+03  0.1120E+03
     10.659  0.4415E+01  0.4258E+01  0.1130E+03  0.1128E+03
     10.865  0.2074E+01  0.2339E+01  0.1134E+03  0.1133E+03
     11.072  0.4297E+01  0.3617E+01  0.1143E+03  0.1141E+03
     11.278  0.4291E+01  0.4095E+01  0.1152E+03  0.1149E+03
     11.485  0.2388E+01  0.2904E+01  0.1157E+03  0.1155E+03
     11.691  0.6045E+01  0.5006E+01  0.1169E+03  0.1166E+03
     11.898  0.3154E+01  0.3822E+01  0.1176E+03  0.1173E+03
     12.104  0.2579E+01  0.2510E+01  0.1181E+03  0.1179E+03
     12.311  0.4235E+01  0.3524E+01  0.1190E+03  0.1186E+03
     12.517  0.2573E+01  0.3680E+01  0.1195E+03  0.1194E+03
     12.724  0.1439E+01  0.9651E+00  0.1198E+03  0.1196E+03
     12.930  0.7560E+00  0.9725E+00  0.1199E+03  0.1198E+03
     13.137  0.1255E+00  0.8328E+00  0.1200E+03  0.1199E+03
     13.343  0.1223E+00  0.3668E+00  0.1200E+03  0.1200E+03
     13.550  0.7081E-05  0.1479E-04  0.1200E+03  0.1200E+03
     13.756  0.0000E+00  0.0000E+00  0.1200E+03  0.1200E+03
     13.963  0.0000E+00  0.0000E+00  0.1200E+03  0.1200E+03
     14.169  0.0000E+00  0.0000E+00  0.1200E+03  0.1200E+03
     14.376  0.0000E+00  0.0000E+00  0.1200E+03  0.1200E+03
     14.582  0.0000E+00  0.0000E+00  0.1200E+03  0.1200E+03
     14.789  0.0000E+00  0.0000E+00  0.1200E+03  0.1200E+03
     14.995  0.0000E+00  0.0000E+00  0.1200E+03  0.1200E+03
     15.202  0.0000E+00  0.0000E+00  0.1200E+03  0.1200E+03
     15.408  0.0000E+00  0.0000E+00  0.1200E+03  0.1200E+03
     15.615  0.0000E+00  0.0000E+00  0.1200E+03  0.1200E+03
     15.821  0.0000E+00  0.0000E+00  0.1200E+03  0.1200E+03
     16.028  0.0000E+00  0.0000E+00  0.1200E+03  0.1200E+03
