   22   22    1    2
  0.1420100E+02  0.5010501E-09  0.5010501E-09  0.1436974E-08  0.5000000E-15
  1.000000000000000E-004
  CAR 
 unknown system                          
    170     16    120
 
  0.0000000E+00  0.0000000E+00  0.0000000E+00  0.1020408E-01
      1        -43.105497      -43.067460   1.000000   1.000000
      2        -43.105494      -43.067456   1.000000   1.000000
      3        -43.105491      -43.067453   1.000000   1.000000
      4        -43.105488      -43.067450   1.000000   1.000000
      5        -43.093570      -43.016932   1.000000   1.000000
      6        -43.093506      -43.016886   1.000000   1.000000
      7        -41.567532      -40.829221   1.000000   1.000000
      8        -41.567528      -40.829217   1.000000   1.000000
      9        -41.567528      -40.829215   1.000000   1.000000
     10        -41.567524      -40.829212   1.000000   1.000000
     11        -41.117621      -39.638552   1.000000   1.000000
     12        -41.117580      -39.638531   1.000000   1.000000
     13        -25.047213      -25.048140   1.000000   1.000000
     14        -25.035646      -25.036194   1.000000   1.000000
     15        -24.556826      -24.561444   1.000000   1.000000
     16        -24.556825      -24.561443   1.000000   1.000000
     17        -24.556328      -24.560943   1.000000   1.000000
     18        -24.556326      -24.560942   1.000000   1.000000
     19        -24.414231      -24.412249   1.000000   1.000000
     20        -24.391569      -24.388938   1.000000   1.000000
     21        -23.953276      -23.955158   1.000000   1.000000
     22        -23.953275      -23.955157   1.000000   1.000000
     23        -23.952373      -23.954256   1.000000   1.000000
     24        -23.952372      -23.954255   1.000000   1.000000
     25        -23.599532      -23.582193   1.000000   1.000000
     26        -23.587986      -23.570340   1.000000   1.000000
     27        -23.304794      -23.301031   1.000000   1.000000
     28        -23.304792      -23.301030   1.000000   1.000000
     29        -23.304348      -23.300587   1.000000   1.000000
     30        -23.304347      -23.300586   1.000000   1.000000
     31         -7.862455       -7.669108   1.000000   1.000000
     32         -7.774432       -7.669107   1.000000   1.000000
     33         -7.677865       -7.668202   1.000000   1.000000
     34         -7.677863       -7.668200   1.000000   1.000000
     35         -7.677835       -7.628943   1.000000   1.000000
     36         -7.677833       -7.611206   1.000000   1.000000
     37         -7.400484       -7.292934   1.000000   1.000000
     38         -7.220319       -7.191515   1.000000   1.000000
     39         -7.126999       -7.112890   1.000000   1.000000
     40         -7.126998       -7.112890   1.000000   1.000000
     41         -7.092464       -7.079091   1.000000   1.000000
     42         -7.092464       -7.079091   1.000000   1.000000
     43         -6.543753       -6.405808   1.000000   1.000000
     44         -6.475729       -6.387080   1.000000   1.000000
     45         -6.430246       -6.387080   1.000000   1.000000
     46         -6.430245       -6.369469   1.000000   1.000000
     47         -6.401067       -6.369469   1.000000   1.000000
     48         -6.401067       -6.333234   1.000000   1.000000
     49         -6.251911       -6.171146   1.000000   1.000000
     50         -6.076229       -6.006054   1.000000   1.000000
     51         -6.076228       -6.006053   1.000000   1.000000
     52         -6.056118       -6.005638   1.000000   1.000000
     53         -6.056117       -6.005637   1.000000   1.000000
     54         -5.893055       -5.824436   1.000000   1.000000
     55         -5.567207       -5.539966   1.000000   1.000000
     56         -5.567205       -5.528963   1.000000   1.000000
     57         -5.550464       -5.514941   1.000000   1.000000
     58         -5.534458       -5.514940   1.000000   1.000000
     59         -5.523801       -5.472443   1.000000   1.000000
     60         -5.494170       -5.472443   1.000000   1.000000
     61         -5.494169       -5.287906   1.000000   1.000000
     62         -5.301458       -5.286595   1.000000   1.000000
     63         -5.294099       -5.264690   1.000000   1.000000
     64         -5.294098       -5.264689   1.000000   1.000000
     65         -5.241319       -5.135967   1.000000   1.000000
     66         -5.199673       -5.135966   1.000000   1.000000
     67         -5.199673       -4.943231   1.000000   1.000000
     68         -5.189464       -4.924575   1.000000   1.000000
     69         -4.925383       -4.924573   1.000000   1.000000
     70         -4.925380       -4.792896   1.000000   1.000000
     71         -4.805243       -4.792895   1.000000   1.000000
     72         -4.805241       -4.723776   1.000000   1.000000
     73         -4.650663       -4.676376   1.000000   1.000000
     74         -4.602672       -4.628390   1.000000   1.000000
     75         -4.283811       -4.304288   1.000000   1.000000
     76         -4.246043       -4.266875   1.000000   1.000000
     77         -4.239762       -4.238632   1.000000   1.000000
     78         -4.239759       -4.238629   1.000000   1.000000
     79         -4.232357       -4.230199   1.000000   1.000000
     80         -4.232354       -4.230196   1.000000   1.000000
     81         -4.025932       -4.003491   1.000000   1.000000
     82         -4.025930       -4.003490   1.000000   1.000000
     83         -3.993897       -3.970592   1.000000   1.000000
     84         -3.993895       -3.970590   1.000000   1.000000
     85         -1.721381       -0.821721   1.000000   0.000000
     86         -1.669557       -0.819229   1.000000   0.000000
     87         -1.003817       -0.798555   0.000000   0.000000
     88         -0.987202       -0.798554   0.000000   0.000000
     89         -0.836458       -0.782321   0.000000   0.000000
     90         -0.836457       -0.782320   0.000000   0.000000
     91         -0.817510        1.111120   0.000000   0.000000
     92         -0.817510        1.111121   0.000000   0.000000
     93          0.525631        1.117958   0.000000   0.000000
     94          0.525632        1.117959   0.000000   0.000000
     95          0.525635        1.276263   0.000000   0.000000
     96          0.525636        1.276265   0.000000   0.000000
     97          1.209297        1.277162   0.000000   0.000000
     98          1.209298        1.277164   0.000000   0.000000
     99          1.220266        2.225427   0.000000   0.000000
    100          1.220267        2.234478   0.000000   0.000000
    101          2.084970        2.558128   0.000000   0.000000
    102          2.084971        2.558129   0.000000   0.000000
    103          2.101706        2.569921   0.000000   0.000000
    104          2.101707        2.569922   0.000000   0.000000
    105          5.116916        5.166734   0.000000   0.000000
    106          6.145769        6.179938   0.000000   0.000000
    107          6.204735        6.263259   0.000000   0.000000
    108          8.490922        8.525408   0.000000   0.000000
    109          8.608872        8.670926   0.000000   0.000000
    110         11.030041       11.109558   0.000000   0.000000
    111         11.597707       11.747096   0.000000   0.000000
    112         11.887824       11.969273   0.000000   0.000000
    113         11.974971       12.055851   0.000000   0.000000
    114         12.136424       12.133476   0.000000   0.000000
    115         12.173052       12.271164   0.000000   0.000000
    116         12.481678       12.502666   0.000000   0.000000
    117         12.490167       12.526489   0.000000   0.000000
    118         12.849650       12.830236   0.000000   0.000000
    119         13.116991       13.054069   0.000000   0.000000
    120         13.204108       13.171663   0.000000   0.000000
 
  0.1428571E+00  0.3436629E-34  0.0000000E+00  0.6122449E-01
      1        -43.105595      -43.067557   1.000000   1.000000
      2        -43.105592      -43.067555   1.000000   1.000000
      3        -43.105528      -43.067491   1.000000   1.000000
      4        -43.105520      -43.067483   1.000000   1.000000
      5        -43.093557      -43.016919   1.000000   1.000000
      6        -43.093501      -43.016882   1.000000   1.000000
      7        -41.567645      -40.829345   1.000000   1.000000
      8        -41.567641      -40.829345   1.000000   1.000000
      9        -41.567566      -40.829260   1.000000   1.000000
     10        -41.567562      -40.829255   1.000000   1.000000
     11        -41.117617      -39.638548   1.000000   1.000000
     12        -41.117563      -39.638513   1.000000   1.000000
     13        -25.028062      -25.028965   1.000000   1.000000
     14        -25.017010      -25.017550   1.000000   1.000000
     15        -24.566765      -24.571277   1.000000   1.000000
     16        -24.566720      -24.571211   1.000000   1.000000
     17        -24.560629      -24.565250   1.000000   1.000000
     18        -24.560097      -24.564714   1.000000   1.000000
     19        -24.400064      -24.398118   1.000000   1.000000
     20        -24.379259      -24.376672   1.000000   1.000000
     21        -23.966061      -23.967903   1.000000   1.000000
     22        -23.965103      -23.966939   1.000000   1.000000
     23        -23.957755      -23.959628   1.000000   1.000000
     24        -23.956868      -23.958741   1.000000   1.000000
     25        -23.584229      -23.567349   1.000000   1.000000
     26        -23.573581      -23.556417   1.000000   1.000000
     27        -23.315894      -23.311800   1.000000   1.000000
     28        -23.315353      -23.311250   1.000000   1.000000
     29        -23.311051      -23.307277   1.000000   1.000000
     30        -23.310548      -23.306777   1.000000   1.000000
     31         -7.832788       -7.700403   1.000000   1.000000
     32         -7.757165       -7.697545   1.000000   1.000000
     33         -7.703287       -7.683551   1.000000   1.000000
     34         -7.701827       -7.679625   1.000000   1.000000
     35         -7.689369       -7.589264   1.000000   1.000000
     36         -7.679742       -7.574163   1.000000   1.000000
     37         -7.377421       -7.287868   1.000000   1.000000
     38         -7.229579       -7.209070   1.000000   1.000000
     39         -7.156988       -7.136367   1.000000   1.000000
     40         -7.121305       -7.101418   1.000000   1.000000
     41         -7.111501       -7.097584   1.000000   1.000000
     42         -7.090160       -7.073380   1.000000   1.000000
     43         -6.556939       -6.448057   1.000000   1.000000
     44         -6.490924       -6.441984   1.000000   1.000000
     45         -6.446310       -6.406563   1.000000   1.000000
     46         -6.426543       -6.382596   1.000000   1.000000
     47         -6.407529       -6.291589   1.000000   1.000000
     48         -6.373496       -6.276271   1.000000   1.000000
     49         -6.241278       -6.151238   1.000000   1.000000
     50         -6.096670       -6.031773   1.000000   1.000000
     51         -6.063622       -6.013281   1.000000   1.000000
     52         -6.030772       -5.975232   1.000000   1.000000
     53         -6.002054       -5.961243   1.000000   1.000000
     54         -5.925279       -5.850607   1.000000   1.000000
     55         -5.649169       -5.590728   1.000000   1.000000
     56         -5.603526       -5.548076   1.000000   1.000000
     57         -5.521460       -5.486621   1.000000   1.000000
     58         -5.507533       -5.485559   1.000000   1.000000
     59         -5.501576       -5.462285   1.000000   1.000000
     60         -5.475243       -5.431593   1.000000   1.000000
     61         -5.430791       -5.355361   1.000000   1.000000
     62         -5.378914       -5.346948   1.000000   1.000000
     63         -5.337296       -5.251724   1.000000   1.000000
     64         -5.276293       -5.197899   1.000000   1.000000
     65         -5.265795       -5.147650   1.000000   1.000000
     66         -5.236673       -5.043833   1.000000   1.000000
     67         -5.087105       -4.975169   1.000000   1.000000
     68         -5.051904       -4.948712   1.000000   1.000000
     69         -4.984011       -4.916760   1.000000   1.000000
     70         -4.942072       -4.828228   1.000000   1.000000
     71         -4.844765       -4.815111   1.000000   1.000000
     72         -4.835347       -4.717468   1.000000   1.000000
     73         -4.558266       -4.574473   1.000000   1.000000
     74         -4.513602       -4.529279   1.000000   1.000000
     75         -4.329801       -4.329989   1.000000   1.000000
     76         -4.307463       -4.302780   1.000000   1.000000
     77         -4.272367       -4.281912   1.000000   1.000000
     78         -4.267847       -4.273015   1.000000   1.000000
     79         -4.192998       -4.201972   1.000000   1.000000
     80         -4.179434       -4.191047   1.000000   1.000000
     81         -4.076960       -4.052362   1.000000   1.000000
     82         -4.043852       -4.019182   1.000000   1.000000
     83         -4.026182       -4.008386   1.000000   1.000000
     84         -4.001557       -3.981578   1.000000   1.000000
     85         -1.707640       -0.817221   1.000000   0.000000
     86         -1.658467       -0.816486   1.000000   0.000000
     87         -0.994510       -0.810596   0.000000   0.000000
     88         -0.973893       -0.797520   0.000000   0.000000
     89         -0.850026       -0.791557   0.000000   0.000000
     90         -0.838200       -0.780523   0.000000   0.000000
     91         -0.831467        1.093390   0.000000   0.000000
     92         -0.818547        1.098756   0.000000   0.000000
     93          0.508944        1.105254   0.000000   0.000000
     94          0.510182        1.109042   0.000000   0.000000
     95          0.513325        1.267333   0.000000   0.000000
     96          0.515672        1.269676   0.000000   0.000000
     97          1.205007        1.275992   0.000000   0.000000
     98          1.207596        1.277691   0.000000   0.000000
     99          1.213746        2.224405   0.000000   0.000000
    100          1.218999        2.234718   0.000000   0.000000
    101          2.080131        2.557202   0.000000   0.000000
    102          2.082380        2.557448   0.000000   0.000000
    103          2.088239        2.562459   0.000000   0.000000
    104          2.101355        2.570378   0.000000   0.000000
    105          5.361016        5.409406   0.000000   0.000000
    106          6.372245        6.402464   0.000000   0.000000
    107          6.412477        6.474105   0.000000   0.000000
    108          8.663792        8.698650   0.000000   0.000000
    109          8.778691        8.841798   0.000000   0.000000
    110         11.075671       11.120594   0.000000   0.000000
    111         11.119967       11.260657   0.000000   0.000000
    112         11.352522       11.416100   0.000000   0.000000
    113         11.558282       11.582507   0.000000   0.000000
    114         11.619663       11.683988   0.000000   0.000000
    115         11.910781       11.948008   0.000000   0.000000
    116         11.973278       12.003421   0.000000   0.000000
    117         12.230753       12.263919   0.000000   0.000000
    118         12.407761       12.536900   0.000000   0.000000
    119         12.542864       12.591873   0.000000   0.000000
    120         12.698969       13.029409   0.000000   0.000000
 
  0.2857143E+00  0.6873257E-34 -0.3851860E-33  0.6122449E-01
      1        -43.105803      -43.067767   1.000000   1.000000
      2        -43.105802      -43.067767   1.000000   1.000000
      3        -43.105589      -43.067552   1.000000   1.000000
      4        -43.105586      -43.067549   1.000000   1.000000
      5        -43.093518      -43.016879   1.000000   1.000000
      6        -43.093472      -43.016852   1.000000   1.000000
      7        -41.567889      -40.829620   1.000000   1.000000
      8        -41.567883      -40.829613   1.000000   1.000000
      9        -41.567635      -40.829342   1.000000   1.000000
     10        -41.567634      -40.829341   1.000000   1.000000
     11        -41.117580      -39.638501   1.000000   1.000000
     12        -41.117518      -39.638447   1.000000   1.000000
     13        -24.980938      -24.981751   1.000000   1.000000
     14        -24.971084      -24.971571   1.000000   1.000000
     15        -24.590500      -24.594992   1.000000   1.000000
     16        -24.590496      -24.594976   1.000000   1.000000
     17        -24.568213      -24.572833   1.000000   1.000000
     18        -24.567624      -24.572238   1.000000   1.000000
     19        -24.370829      -24.368706   1.000000   1.000000
     20        -24.353291      -24.350596   1.000000   1.000000
     21        -23.996470      -23.998230   1.000000   1.000000
     22        -23.995508      -23.997252   1.000000   1.000000
     23        -23.967864      -23.969710   1.000000   1.000000
     24        -23.967042      -23.968881   1.000000   1.000000
     25        -23.542678      -23.526913   1.000000   1.000000
     26        -23.534214      -23.518241   1.000000   1.000000
     27        -23.348780      -23.343950   1.000000   1.000000
     28        -23.348063      -23.343174   1.000000   1.000000
     29        -23.324076      -23.320204   1.000000   1.000000
     30        -23.323546      -23.319676   1.000000   1.000000
     31         -7.803959       -7.790902   1.000000   1.000000
     32         -7.790918       -7.779738   1.000000   1.000000
     33         -7.772281       -7.707639   1.000000   1.000000
     34         -7.730218       -7.697714   1.000000   1.000000
     35         -7.694121       -7.522914   1.000000   1.000000
     36         -7.657113       -7.513005   1.000000   1.000000
     37         -7.329420       -7.297512   1.000000   1.000000
     38         -7.263884       -7.253892   1.000000   1.000000
     39         -7.189820       -7.117502   1.000000   1.000000
     40         -7.126954       -7.085204   1.000000   1.000000
     41         -7.009345       -6.996399   1.000000   1.000000
     42         -6.984467       -6.970129   1.000000   1.000000
     43         -6.613952       -6.556314   1.000000   1.000000
     44         -6.591290       -6.520617   1.000000   1.000000
     45         -6.507828       -6.448257   1.000000   1.000000
     46         -6.479276       -6.428838   1.000000   1.000000
     47         -6.375705       -6.262348   1.000000   1.000000
     48         -6.315783       -6.255519   1.000000   1.000000
     49         -6.247884       -6.095350   1.000000   1.000000
     50         -6.122403       -6.072227   1.000000   1.000000
     51         -6.062932       -5.996992   1.000000   1.000000
     52         -5.972040       -5.890676   1.000000   1.000000
     53         -5.917288       -5.879760   1.000000   1.000000
     54         -5.884722       -5.846973   1.000000   1.000000
     55         -5.775091       -5.718330   1.000000   1.000000
     56         -5.667869       -5.604829   1.000000   1.000000
     57         -5.545397       -5.508287   1.000000   1.000000
     58         -5.532181       -5.497507   1.000000   1.000000
     59         -5.503747       -5.473924   1.000000   1.000000
     60         -5.492618       -5.377109   1.000000   1.000000
     61         -5.396662       -5.297600   1.000000   1.000000
     62         -5.312148       -5.295122   1.000000   1.000000
     63         -5.278306       -5.220867   1.000000   1.000000
     64         -5.267839       -5.174652   1.000000   1.000000
     65         -5.214587       -5.157153   1.000000   1.000000
     66         -5.174823       -5.105700   1.000000   1.000000
     67         -5.151149       -4.994401   1.000000   1.000000
     68         -5.068720       -4.884376   1.000000   1.000000
     69         -4.983660       -4.866564   1.000000   1.000000
     70         -4.890669       -4.865457   1.000000   1.000000
     71         -4.881648       -4.834778   1.000000   1.000000
     72         -4.851174       -4.719881   1.000000   1.000000
     73         -4.518911       -4.521280   1.000000   1.000000
     74         -4.464056       -4.460127   1.000000   1.000000
     75         -4.388096       -4.389547   1.000000   1.000000
     76         -4.355181       -4.356989   1.000000   1.000000
     77         -4.302717       -4.311208   1.000000   1.000000
     78         -4.301633       -4.309179   1.000000   1.000000
     79         -4.187706       -4.160651   1.000000   1.000000
     80         -4.147759       -4.123529   1.000000   1.000000
     81         -4.116264       -4.093005   1.000000   1.000000
     82         -4.100292       -4.089823   1.000000   1.000000
     83         -3.974201       -3.987705   1.000000   1.000000
     84         -3.966594       -3.986641   1.000000   1.000000
     85         -1.680656       -0.847123   1.000000   0.000000
     86         -1.636841       -0.832890   1.000000   0.000000
     87         -0.972974       -0.813140   0.000000   0.000000
     88         -0.948175       -0.803542   0.000000   0.000000
     89         -0.882045       -0.778779   0.000000   0.000000
     90         -0.865177       -0.775968   0.000000   0.000000
     91         -0.843136        1.050587   0.000000   0.000000
     92         -0.822578        1.071715   0.000000   0.000000
     93          0.472436        1.078083   0.000000   0.000000
     94          0.474876        1.088447   0.000000   0.000000
     95          0.480965        1.254052   0.000000   0.000000
     96          0.491990        1.256926   0.000000   0.000000
     97          1.199485        1.266878   0.000000   0.000000
     98          1.200655        1.282483   0.000000   0.000000
     99          1.206378        2.226402   0.000000   0.000000
    100          1.213130        2.235925   0.000000   0.000000
    101          2.065500        2.549992   0.000000   0.000000
    102          2.077160        2.556678   0.000000   0.000000
    103          2.083404        2.558487   0.000000   0.000000
    104          2.099609        2.572331   0.000000   0.000000
    105          6.040103        6.086853   0.000000   0.000000
    106          6.979409        7.010830   0.000000   0.000000
    107          7.009185        7.070605   0.000000   0.000000
    108          9.089233        9.139466   0.000000   0.000000
    109          9.226686        9.287135   0.000000   0.000000
    110          9.782308        9.803693   0.000000   0.000000
    111         10.097392       10.155397   0.000000   0.000000
    112         10.343034       10.384354   0.000000   0.000000
    113         11.162538       11.226901   0.000000   0.000000
    114         11.341170       11.377016   0.000000   0.000000
    115         11.545058       11.647750   0.000000   0.000000
    116         11.756132       11.773715   0.000000   0.000000
    117         11.812352       11.883143   0.000000   0.000000
    118         11.860567       12.025673   0.000000   0.000000
    119         12.024482       12.104081   0.000000   0.000000
    120         12.186298       12.438418   0.000000   0.000000
 
  0.4285714E+00  0.1030989E-33  0.0000000E+00  0.6122449E-01
      1        -43.105966      -43.067931   1.000000   1.000000
      2        -43.105965      -43.067930   1.000000   1.000000
      3        -43.105637      -43.067600   1.000000   1.000000
      4        -43.105635      -43.067598   1.000000   1.000000
      5        -43.093486      -43.016846   1.000000   1.000000
      6        -43.093441      -43.016821   1.000000   1.000000
      7        -41.568084      -40.829833   1.000000   1.000000
      8        -41.568075      -40.829828   1.000000   1.000000
      9        -41.567691      -40.829403   1.000000   1.000000
     10        -41.567691      -40.829400   1.000000   1.000000
     11        -41.117544      -39.638454   1.000000   1.000000
     12        -41.117485      -39.638394   1.000000   1.000000
     13        -24.937232      -24.937891   1.000000   1.000000
     14        -24.928451      -24.928814   1.000000   1.000000
     15        -24.613503      -24.618159   1.000000   1.000000
     16        -24.613106      -24.617751   1.000000   1.000000
     17        -24.573373      -24.577996   1.000000   1.000000
     18        -24.572780      -24.577395   1.000000   1.000000
     19        -24.348324      -24.345904   1.000000   1.000000
     20        -24.333047      -24.330120   1.000000   1.000000
     21        -24.023002      -24.024729   1.000000   1.000000
     22        -24.022144      -24.023855   1.000000   1.000000
     23        -23.976023      -23.977842   1.000000   1.000000
     24        -23.975242      -23.977045   1.000000   1.000000
     25        -23.490620      -23.475029   1.000000   1.000000
     26        -23.483835      -23.468150   1.000000   1.000000
     27        -23.394483      -23.389834   1.000000   1.000000
     28        -23.393821      -23.389036   1.000000   1.000000
     29        -23.333831      -23.329846   1.000000   1.000000
     30        -23.333303      -23.329319   1.000000   1.000000
     31         -7.887145       -7.873520   1.000000   1.000000
     32         -7.868703       -7.858063   1.000000   1.000000
     33         -7.757552       -7.721630   1.000000   1.000000
     34         -7.737319       -7.709194   1.000000   1.000000
     35         -7.668431       -7.498545   1.000000   1.000000
     36         -7.627018       -7.495135   1.000000   1.000000
     37         -7.290938       -7.270961   1.000000   1.000000
     38         -7.274797       -7.250586   1.000000   1.000000
     39         -7.154892       -7.043765   1.000000   1.000000
     40         -7.093361       -7.027710   1.000000   1.000000
     41         -6.903501       -6.884734   1.000000   1.000000
     42         -6.842454       -6.833896   1.000000   1.000000
     43         -6.663714       -6.601247   1.000000   1.000000
     44         -6.636185       -6.589429   1.000000   1.000000
     45         -6.540601       -6.496286   1.000000   1.000000
     46         -6.532811       -6.469467   1.000000   1.000000
     47         -6.416102       -6.306629   1.000000   1.000000
     48         -6.341894       -6.294019   1.000000   1.000000
     49         -6.202360       -6.090856   1.000000   1.000000
     50         -6.134755       -6.073661   1.000000   1.000000
     51         -6.064046       -5.964065   1.000000   1.000000
     52         -5.987476       -5.924036   1.000000   1.000000
     53         -5.968588       -5.887166   1.000000   1.000000
     54         -5.851798       -5.819283   1.000000   1.000000
     55         -5.735102       -5.701249   1.000000   1.000000
     56         -5.718690       -5.653263   1.000000   1.000000
     57         -5.584413       -5.537806   1.000000   1.000000
     58         -5.552593       -5.513204   1.000000   1.000000
     59         -5.549774       -5.509211   1.000000   1.000000
     60         -5.505508       -5.416416   1.000000   1.000000
     61         -5.413075       -5.384410   1.000000   1.000000
     62         -5.370022       -5.358445   1.000000   1.000000
     63         -5.363356       -5.105838   1.000000   1.000000
     64         -5.272709       -5.099049   1.000000   1.000000
     65         -5.109258       -5.062135   1.000000   1.000000
     66         -5.096446       -5.044920   1.000000   1.000000
     67         -5.067537       -4.987101   1.000000   1.000000
     68         -5.050153       -4.918639   1.000000   1.000000
     69         -4.969855       -4.870687   1.000000   1.000000
     70         -4.925497       -4.816744   1.000000   1.000000
     71         -4.827720       -4.806284   1.000000   1.000000
     72         -4.812744       -4.735396   1.000000   1.000000
     73         -4.640748       -4.646107   1.000000   1.000000
     74         -4.580478       -4.584119   1.000000   1.000000
     75         -4.370763       -4.365977   1.000000   1.000000
     76         -4.354703       -4.350920   1.000000   1.000000
     77         -4.302788       -4.273007   1.000000   1.000000
     78         -4.231932       -4.231788   1.000000   1.000000
     79         -4.201021       -4.203668   1.000000   1.000000
     80         -4.198161       -4.173005   1.000000   1.000000
     81         -4.153940       -4.129668   1.000000   1.000000
     82         -4.114282       -4.086284   1.000000   1.000000
     83         -3.880717       -3.916321   1.000000   1.000000
     84         -3.866129       -3.900535   1.000000   1.000000
     85         -1.661914       -0.876624   1.000000   0.000000
     86         -1.621788       -0.863176   1.000000   0.000000
     87         -0.955360       -0.812230   0.000000   0.000000
     88         -0.932781       -0.795581   0.000000   0.000000
     89         -0.907381       -0.774001   0.000000   0.000000
     90         -0.890473       -0.771276   0.000000   0.000000
     91         -0.850611        1.019219   0.000000   0.000000
     92         -0.828760        1.046984   0.000000   0.000000
     93          0.444374        1.053411   0.000000   0.000000
     94          0.444748        1.075040   0.000000   0.000000
     95          0.449776        1.244593   0.000000   0.000000
     96          0.473346        1.247824   0.000000   0.000000
     97          1.191717        1.255935   0.000000   0.000000
     98          1.199907        1.292554   0.000000   0.000000
     99          1.204853        2.232644   0.000000   0.000000
    100          1.208047        2.238247   0.000000   0.000000
    101          2.064814        2.548231   0.000000   0.000000