       N       E                     dE             d eps       ncg     rms          rms(c)
DAV:   1     0.209169565280E+04    0.20917E+04   -0.10003E+05  7856   0.159E+03
DAV:   2     0.528885359336E+02   -0.20388E+04   -0.19280E+04  8192   0.441E+02
DAV:   3    -0.136086399127E+03   -0.18897E+03   -0.18579E+03  8528   0.153E+02
DAV:   4    -0.140939375830E+03   -0.48530E+01   -0.48206E+01  8768   0.296E+01
DAV:   5    -0.141062777480E+03   -0.12340E+00   -0.12329E+00  8856   0.441E+00    0.891E+01
RMM:   6    -0.479544880276E+01    0.13627E+03   -0.27122E+02  8305   0.555E+01    0.359E+01
RMM:   7    -0.319455685915E+02   -0.27150E+02   -0.31513E+01  8382   0.224E+01    0.270E+01
RMM:   8    -0.544926007909E+02   -0.22547E+02   -0.11924E+01  8631   0.112E+01    0.133E+01
RMM:   9    -0.754658397626E+02   -0.20973E+02   -0.54854E+00  8559   0.818E+00    0.128E+01
RMM:  10    -0.972573348487E+02   -0.21791E+02   -0.10522E+01  8681   0.102E+01    0.578E+00
RMM:  11    -0.109634700276E+03   -0.12377E+02   -0.11770E+01  9404   0.842E+00    0.372E+00
RMM:  12    -0.112887503547E+03   -0.32528E+01   -0.23360E+00  8746   0.449E+00    0.242E+00
RMM:  13    -0.115326789466E+03   -0.24393E+01   -0.27342E+00  9187   0.426E+00    0.190E+00
RMM:  14    -0.115820785813E+03   -0.49400E+00   -0.60735E-01  8718   0.217E+00    0.110E+00
RMM:  15    -0.115850131882E+03   -0.29346E-01   -0.11473E-01  8533   0.104E+00    0.677E-01
RMM:  16    -0.115850524607E+03   -0.39272E-03   -0.22852E-02  8700   0.495E-01    0.295E-01
RMM:  17    -0.115850251744E+03    0.27286E-03   -0.96110E-03  8730   0.318E-01    0.193E-01
RMM:  18    -0.115850312876E+03   -0.61132E-04   -0.22910E-03  8814   0.168E-01    0.757E-02
RMM:  19    -0.115850315670E+03   -0.27944E-05   -0.67436E-04  9194   0.784E-02    0.472E-02
RMM:  20    -0.115850323991E+03   -0.83210E-05   -0.18775E-04  9172   0.430E-02    0.200E-02
RMM:  21    -0.115850326008E+03   -0.20169E-05   -0.32914E-05  8917   0.181E-02    0.822E-03
RMM:  22    -0.115850327337E+03   -0.13290E-05   -0.76216E-06  7544   0.823E-03    0.522E-03
RMM:  23    -0.115850327777E+03   -0.43996E-06   -0.15775E-06  5806   0.483E-03
   1 F= -.11760350E+03 E0= -.11760350E+03  d E =-.100724E-17  mag=     2.0000
