Automatically generated mesh
      65
Reciprocal lattice
    0.00000000000000    0.00000000000000    0.00000000000000             1
    0.12500000000000   -0.00000000000000    0.00000000000000             2
    0.25000000000000   -0.00000000000000    0.00000000000000             2
    0.37500000000000    0.00000000000000    0.00000000000000             2
    0.50000000000000   -0.00000000000000    0.00000000000000             1
    0.00000000000000    0.12500000000000    0.00000000000000             2
    0.12500000000000    0.12500000000000    0.00000000000000             4
    0.25000000000000    0.12500000000000    0.00000000000000             4
    0.37500000000000    0.12500000000000   -0.00000000000000             4
    0.50000000000000    0.12500000000000    0.00000000000000             2
    0.00000000000000    0.25000000000000    0.00000000000000             2
    0.12500000000000    0.25000000000000   -0.00000000000000             4
    0.25000000000000    0.25000000000000    0.00000000000000             4
    0.37500000000000    0.25000000000000    0.00000000000000             4
    0.50000000000000    0.25000000000000    0.00000000000000             2
    0.00000000000000    0.37500000000000   -0.00000000000000             2
    0.12500000000000    0.37500000000000   -0.00000000000000             4
    0.25000000000000    0.37500000000000    0.00000000000000             4
    0.37500000000000    0.37500000000000    0.00000000000000             4
    0.50000000000000    0.37500000000000    0.00000000000000             2
    0.00000000000000    0.50000000000000    0.00000000000000             1
    0.12500000000000    0.50000000000000    0.00000000000000             2
    0.25000000000000    0.50000000000000   -0.00000000000000             2
    0.37500000000000    0.50000000000000    0.00000000000000             2
    0.50000000000000    0.50000000000000    0.00000000000000             1
    0.00000000000000    0.00000000000000    0.33333333333334             2
    0.12500000000000    0.00000000000000    0.33333333333334             4
    0.25000000000000    0.00000000000000    0.33333333333334             4
    0.37500000000000    0.00000000000000    0.33333333333334             4
    0.50000000000000    0.00000000000000    0.33333333333334             2
    0.00000000000000    0.12500000000000    0.33333333333334             2
    0.12500000000000    0.12500000000000    0.33333333333334             4
    0.25000000000000    0.12500000000000    0.33333333333334             4
    0.37500000000000    0.12500000000000    0.33333333333334             4
    0.50000000000000    0.12500000000000    0.33333333333334             2
    0.00000000000000    0.25000000000000    0.33333333333334             2
    0.12500000000000    0.25000000000000    0.33333333333334             4
    0.25000000000000    0.25000000000000    0.33333333333334             4
    0.37500000000000    0.25000000000000    0.33333333333334             4
    0.50000000000000    0.25000000000000    0.33333333333334             2
    0.00000000000000    0.37500000000000    0.33333333333334             2
    0.12500000000000    0.37500000000000    0.33333333333334             4
    0.25000000000000    0.37500000000000    0.33333333333334             4
    0.37500000000000    0.37500000000000    0.33333333333334             4
    0.50000000000000    0.37500000000000    0.33333333333334             2
    0.00000000000000    0.50000000000000    0.33333333333334             2
    0.12500000000000    0.50000000000000    0.33333333333334             4
    0.25000000000000    0.50000000000000    0.33333333333334             4
    0.37500000000000    0.50000000000000    0.33333333333334             4
    0.50000000000000    0.50000000000000    0.33333333333334             2
    0.00000000000000   -0.37500000000000    0.33333333333334             2
    0.12500000000000   -0.37500000000000    0.33333333333334             4
    0.25000000000000   -0.37500000000000    0.33333333333334             4
    0.37500000000000   -0.37500000000000    0.33333333333334             4
    0.50000000000000   -0.37500000000000    0.33333333333334             2
    0.00000000000000   -0.25000000000000    0.33333333333334             2
    0.12500000000000   -0.25000000000000    0.33333333333334             4
    0.25000000000000   -0.25000000000000    0.33333333333334             4
    0.37500000000000   -0.25000000000000    0.33333333333334             4
    0.50000000000000   -0.25000000000000    0.33333333333334             2
    0.00000000000000   -0.12500000000000    0.33333333333334             2
    0.12500000000000   -0.12500000000000    0.33333333333334             4
    0.25000000000000   -0.12500000000000    0.33333333333334             4
    0.37500000000000   -0.12500000000000    0.33333333333334             4
    0.50000000000000   -0.12500000000000    0.33333333333334             2
Tetrahedra
       576    0.00086805555556
         2         2         6         7        31
         2         1         2         6        31
         2         1         2        26        31
         2         2         7        31        32
         2         2        27        31        32
         2         2        26        27        31
         2         3         7         8        32
         2         2         3         7        32
         2         2         3        27        32
         2         3         8        32        33
         2         3        28        32        33
         2         3        27        28        32
         2         4         8         9        33
         2         3         4         8        33
         2         3         4        28        33
         2         4         9        33        34
         2         4        29        33        34
         2         4        28        29        33
         2         5         9        10        34
         2         4         5         9        34
         2         4         5        29        34
         2         5        10        34        35
         2         5        30        34        35
         2         5        29        30        34
         2         4         9        10        35
         2         4         5        10        35
         2         4         5        30        35
         2         4         9        34        35
         2         4        29        34        35
         2         4        29        30        35
         2         3         8         9        34
         2         3         4         9        34
         2         3         4        29        34
         2         3         8        33        34
         2         3        28        33        34
         2         3        28        29        34
         2         2         7         8        33
         2         2         3         8        33
         2         2         3        28        33
         2         2         7        32        33
         2         2        27        32        33
         2         2        27        28        33
         2         1         6         7        32
         2         1         2         7        32
         2         1         2        27        32
         2         1         6        31        32
         2         1        26        31        32
         2         1        26        27        32
         2         7        11        12        36
         2         6         7        11        36
         2         6         7        31        36
         2         7        12        36        37
         2         7        32        36        37
         2         7        31        32        36
         2         8        12        13        37
         2         7         8        12        37
         2         7         8        32        37
         2         8        13        37        38
         2         8        33        37        38
         2         8        32        33        37
         2         9        13        14        38
         2         8         9        13        38
         2         8         9        33        38
         2         9        14        38        39
         2         9        34        38        39
         2         9        33        34        38
         2        10        14        15        39
         2         9        10        14        39
         2         9        10        34        39
         2        10        15        39        40
         2        10        35        39        40
         2        10        34        35        39
         2         9        14        15        40
         2         9        10        15        40
         2         9        10        35        40
         2         9        14        39        40
         2         9        34        39        40
         2         9        34        35        40
         2         8        13        14        39
         2         8         9        14        39
         2         8         9        34        39
         2         8        13        38        39
         2         8        33        38        39
         2         8        33        34        39
         2         7        12        13        38
         2         7         8        13        38
         2         7         8        33        38
         2         7        12        37        38
         2         7        32        37        38
         2         7        32        33        38
         2         6        11        12        37
         2         6         7        12        37
         2         6         7        32        37
         2         6        11        36        37
         2         6        31        36        37
         2         6        31        32        37
         2        12        16        17        41
         2        11        12        16        41
         2        11        12        36        41
         2        12        17        41        42
         2        12        37        41        42
         2        12        36        37        41
         2        13        17        18        42
         2        12        13        17        42
         2        12        13        37        42
         2        13        18        42        43
         2        13        38        42        43
         2        13        37        38        42
         2        14        18        19        43
         2        13        14        18        43
         2        13        14        38        43
         2        14        19        43        44
         2        14        39        43        44
         2        14        38        39        43
         2        15        19        20        44
         2        14        15        19        44
         2        14        15        39        44
         2        15        20        44        45
         2        15        40        44        45
         2        15        39        40        44
         2        14        19        20        45
         2        14        15        20        45
         2        14        15        40        45
         2        14        19        44        45
         2        14        39        44        45
         2        14        39        40        45
         2        13        18        19        44
         2        13        14        19        44
         2        13        14        39        44
         2        13        18        43        44
         2        13        38        43        44
         2        13        38        39        44
         2        12        17        18        43
         2        12        13        18        43
         2        12        13        38        43
         2        12        17        42        43
         2        12        37        42        43
         2        12        37        38        43
         2        11        16        17        42
         2        11        12        17        42
         2        11        12        37        42
         2        11        16        41        42
         2        11        36        41        42
         2        11        36        37        42
         2        17        21        22        46
         2        16        17        21        46
         2        16        17        41        46
         2        17        22        46        47
         2        17        42        46        47
         2        17        41        42        46
         2        18        22        23        47
         2        17        18        22        47
         2        17        18        42        47
         2        18        23        47        48
         2        18        43        47        48
         2        18        42        43        47
         2        19        23        24        48
         2        18        19        23        48
         2        18        19        43        48
         2        19        24        48        49
         2        19        44        48        49
         2        19        43        44        48
         2        20        24        25        49
         2        19        20        24        49
         2        19        20        44        49
         2        20        25        49        50
         2        20        45        49        50
         2        20        44        45        49
         2        19        24        25        50
         2        19        20        25        50
         2        19        20        45        50
         2        19        24        49        50
         2        19        44        49        50
         2        19        44        45        50
         2        18        23        24        49
         2        18        19        24        49
         2        18        19        44        49
         2        18        23        48        49
         2        18        43        48        49
         2        18        43        44        49
         2        17        22        23        48
         2        17        18        23        48
         2        17        18        43        48
         2        17        22        47        48
         2        17        42        47        48
         2        17        42        43        48
         2        16        21        22        47
         2        16        17        22        47
         2        16        17        42        47
         2        16        21        46        47
         2        16        41        46        47
         2        16        41        42        47
         2        16        17        22        51
         2        16        21        22        51
         2        21        22        46        51
         2        17        22        51        52
         2        22        47        51        52
         2        22        46        47        51
         2        17        18        23        52
         2        17        22        23        52
         2        22        23        47        52
         2        18        23        52        53
         2        23        48        52        53
         2        23        47        48        52
         2        18        19        24        53
         2        18        23        24        53
         2        23        24        48        53
         2        19        24        53        54
         2        24        49        53        54
         2        24        48        49        53
         2        19        20        25        54
         2        19        24        25        54
         2        24        25        49        54
         2        20        25        54        55
         2        25        50        54        55
         2        25        49        50        54
         2        19        20        24        55
         2        20        24        25        55
         2        24        25        50        55
         2        19        24        54        55
         2        24        49        54        55
         2        24        49        50        55
         2        18        19        23        54
         2        19        23        24        54
         2        23        24        49        54
         2        18        23        53        54
         2        23        48        53        54
         2        23        48        49        54
         2        17        18        22        53
         2        18        22        23        53
         2        22        23        48        53
         2        17        22        52        53
         2        22        47        52        53
         2        22        47        48        53
         2        16        17        21        52
         2        17        21        22        52
         2        21        22        47        52
         2        16        21        51        52
         2        21        46        51        52
         2        21        46        47        52
         2        11        12        17        56
         2        11        16        17        56
         2        16        17        51        56
         2        12        17        56        57
         2        17        52        56        57
         2        17        51        52        56
         2        12        13        18        57
         2        12        17        18        57
         2        17        18        52        57
         2        13        18        57        58
         2        18        53        57        58
         2        18        52        53        57
         2        13        14        19        58
         2        13        18        19        58
         2        18        19        53        58
         2        14        19        58        59
         2        19        54        58        59
         2        19        53        54        58
         2        14        15        20        59
         2        14        19        20        59
         2        19        20        54        59
         2        15        20        59        60
         2        20        55        59        60
         2        20        54        55        59
         2        14        15        19        60
         2        15        19        20        60
         2        19        20        55        60
         2        14        19        59        60
         2        19        54        59        60
         2        19        54        55        60
         2        13        14        18        59
         2        14        18        19        59
         2        18        19        54        59
         2        13        18        58        59
         2        18        53        58        59
         2        18        53        54        59
         2        12        13        17        58
         2        13        17        18        58
         2        17        18        53        58
         2        12        17        57        58
         2        17        52        57        58
         2        17        52        53        58
         2        11        12        16        57
         2        12        16        17        57
         2        16        17        52        57
         2        11        16        56        57
         2        16        51        56        57
         2        16        51        52        57
         2         6         7        12        61
         2         6        11        12        61
         2        11        12        56        61
         2         7        12        61        62
         2        12        57        61        62
         2        12        56        57        61
         2         7         8        13        62
         2         7        12        13        62
         2        12        13        57        62
         2         8        13        62        63
         2        13        58        62        63
         2        13        57        58        62
         2         8         9        14        63
         2         8        13        14        63
         2        13        14        58        63
         2         9        14        63        64
         2        14        59        63        64
         2        14        58        59        63
         2         9        10        15        64
         2         9        14        15        64
         2        14        15        59        64
         2        10        15        64        65
         2        15        60        64        65
         2        15        59        60        64
         2         9        10        14        65
         2        10        14        15        65
         2        14        15        60        65
         2         9        14        64        65
         2        14        59        64        65
         2        14        59        60        65
         2         8         9        13        64
         2         9        13        14        64
         2        13        14        59        64
         2         8        13        63        64
         2        13        58        63        64
         2        13        58        59        64
         2         7         8        12        63
         2         8        12        13        63
         2        12        13        58        63
         2         7        12        62        63
         2        12        57        62        63
         2        12        57        58        63
         2         6         7        11        62
         2         7        11        12        62
         2        11        12        57        62
         2         6        11        61        62
         2        11        56        61        62
         2        11        56        57        62
         2         1         2         7        26
         2         1         6         7        26
         2         6         7        26        61
         2         2         7        26        27
         2         7        26        27        62
         2         7        26        61        62
         2         2         3         8        27
         2         2         7         8        27
         2         7         8        27        62
         2         3         8        27        28
         2         8        27        28        63
         2         8        27        62        63
         2         3         4         9        28
         2         3         8         9        28
         2         8         9        28        63
         2         4         9        28        29
         2         9        28        29        64
         2         9        28        63        64
         2         4         5        10        29
         2         4         9        10        29
         2         9        10        29        64
         2         5        10        29        30
         2        10        29        30        65
         2        10        29        64        65
         2         4         5         9        30
         2         5         9        10        30
         2         9        10        30        65
         2         4         9        29        30
         2         9        29        30        64
         2         9        30        64        65
         2         3         4         8        29
         2         4         8         9        29
         2         8         9        29        64
         2         3         8        28        29
         2         8        28        29        63
         2         8        29        63        64
         2         2         3         7        28
         2         3         7         8        28
         2         7         8        28        63
         2         2         7        27        28
         2         7        27        28        62
         2         7        28        62        63
         2         1         2         6        27
         2         2         6         7        27
         2         6         7        27        62
         2         1         6        26        27
         2         6        26        27        61
         2         6        27        61        62
         2        27        31        32        61
         2        26        27        31        61
         2        26        26        27        61
         2        27        32        61        62
         2        27        27        61        62
         2        26        27        27        61
         2        28        32        33        62
         2        27        28        32        62
         2        27        27        28        62
         2        28        33        62        63
         2        28        28        62        63
         2        27        28        28        62
         2        29        33        34        63
         2        28        29        33        63
         2        28        28        29        63
         2        29        34        63        64
         2        29        29        63        64
         2        28        29        29        63
         2        30        34        35        64
         2        29        30        34        64
         2        29        29        30        64
         2        30        35        64        65
         2        30        30        64        65
         2        29        30        30        64
         2        29        34        35        65
         2        29        30        35        65
         2        29        30        30        65
         2        29        34        64        65
         2        29        29        64        65
         2        29        29        30        65
         2        28        33        34        64
         2        28        29        34        64
         2        28        29        29        64
         2        28        33        63        64
         2        28        28        63        64
         2        28        28        29        64
         2        27        32        33        63
         2        27        28        33        63
         2        27        28        28        63
         2        27        32        62        63
         2        27        27        62        63
         2        27        27        28        63
         2        26        31        32        62
         2        26        27        32        62
         2        26        27        27        62
         2        26        31        61        62
         2        26        26        61        62
         2        26        26        27        62
         2        32        36        37        56
         2        31        32        36        56
         2        31        32        56        61
         2        32        37        56        57
         2        32        56        57        62
         2        32        56        61        62
         2        33        37        38        57
         2        32        33        37        57
         2        32        33        57        62
         2        33        38        57        58
         2        33        57        58        63
         2        33        57        62        63
         2        34        38        39        58
         2        33        34        38        58
         2        33        34        58        63
         2        34        39        58        59
         2        34        58        59        64
         2        34        58        63        64
         2        35        39        40        59
         2        34        35        39        59
         2        34        35        59        64
         2        35        40        59        60
         2        35        59        60        65
         2        35        59        64        65
         2        34        39        40        60
         2        34        35        40        60
         2        34        35        60        65
         2        34        39        59        60
         2        34        59        60        64
         2        34        60        64        65
         2        33        38        39        59
         2        33        34        39        59
         2        33        34        59        64
         2        33        38        58        59
         2        33        58        59        63
         2        33        59        63        64
         2        32        37        38        58
         2        32        33        38        58
         2        32        33        58        63
         2        32        37        57        58
         2        32        57        58        62
         2        32        58        62        63
         2        31        36        37        57
         2        31        32        37        57
         2        31        32        57        62
         2        31        36        56        57
         2        31        56        57        61
         2        31        57        61        62
         2        37        41        42        51
         2        36        37        41        51
         2        36        37        51        56
         2        37        42        51        52
         2        37        51        52        57
         2        37        51        56        57
         2        38        42        43        52
         2        37        38        42        52
         2        37        38        52        57
         2        38        43        52        53