       N       E                     dE             d eps       ncg     rms          rms(c)
DAV:   1     0.235206893297E+04    0.23521E+04   -0.17065E+05 23960   0.172E+03
DAV:   2    -0.103512796196E+03   -0.24556E+04   -0.23709E+04 29728   0.355E+02
DAV:   3    -0.305057169363E+03   -0.20154E+03   -0.19850E+03 27216   0.107E+02
DAV:   4    -0.310704783447E+03   -0.56476E+01   -0.56176E+01 30360   0.175E+01
DAV:   5    -0.310856489606E+03   -0.15171E+00   -0.15152E+00 29344   0.275E+00
RMM:   6    -0.310860651038E+03   -0.41614E-02   -0.41614E-02 25239   0.523E-01
RMM:   7    -0.310862442528E+03   -0.17915E-02   -0.17866E-02 34138   0.212E-01
RMM:   8    -0.310862505290E+03   -0.62763E-04   -0.71906E-04 29758   0.613E-02
RMM:   9    -0.310862529722E+03   -0.24431E-04   -0.24562E-04 34351   0.228E-02
RMM:  10    -0.310862530345E+03   -0.62331E-06   -0.88087E-06 23145   0.757E-03
   1 F= -.31821743E+03 E0= -.31821743E+03  d E =0.000000E+00
