 vasp.6.3.0 20Jan22 (build Jan 28 2022 00:43:23) complex                        
  
 executed on             LinuxIFC date 2025.07.23  14:08:38
 running   64 mpi-ranks, with    1 threads/rank
 distrk:  each k-point on   64 cores,    1 groups
 distr:  one band on NCORE=   8 cores,    8 groups


--------------------------------------------------------------------------------------------------------


 INCAR:
   ALGO = Fast
   ICHARG = 11
   LORBIT = 11
   NEDOS = 4000
   ENCUT = 600
   ISMEAR = -5
   EDIFF = 1.0E-6
   PREC = Accurate
   NELM = 200
   NELMIN = 5
   MAGMOM = 52*0.6
   ISPIN = 1
   LMAXMIX = 4
   LASPH = True
   IVDW = 12
   LWAVE = .FALSE.
   LCHARG = .FALSE.
   LREAL = Auto
   NPAR = 8

 POTCAR:    PAW_PBE As 22Sep2009                  
 POTCAR:    PAW_PBE S 06Sep2000                   
 POTCAR:    PAW_PBE O 08Apr2002                   
 POTCAR:    PAW_PBE As 22Sep2009                  
   VRHFIN =As: s2p3                                                                                 
   LEXCH  = PE                                                                                      
   EATOM  =   170.1867 eV,   12.5084 Ry                                                             
                                                                                                    
   TITEL  = PAW_PBE As 22Sep2009                                                                    
   LULTRA =        F    use ultrasoft PP ?                                                          
   IUNSCR =        1    unscreen: 0-lin 1-nonlin 2-no                                               
   RPACOR =    1.900    partial core radius                                                         
   POMASS =   74.922; ZVAL   =    5.000    mass and valenz                                          
   RCORE  =    2.100    outmost cutoff radius                                                       
   RWIGS  =    2.300; RWIGS  =    1.217    wigner-seitz radius (au A)                               
   ENMAX  =  208.702; ENMIN  =  156.526 eV                                                          
   ICORE  =        3    local potential                                                             
   LCOR   =        T    correct aug charges                                                         
   LPAW   =        T    paw PP                                                                      
   EAUG   =  462.758                                                                                
   DEXC   =    0.000                                                                                
   RMAX   =    2.144    core radius for proj-oper                                                   
   RAUG   =    1.300    factor for augmentation sphere                                              
   RDEP   =    2.140    radius for radial grids                                                     
   RDEPT  =    1.956    core radius for aug-charge                                                  
                                                                                                    
   Atomic configuration                                                                             
   10 entries                                                                                       
     n  l   j            E        occ.                                                              
     1  0  0.50    -11718.0418   2.0000                                                             
     2  0  0.50     -1486.5454   2.0000                                                             
     2  1  1.50     -1303.3889   6.0000                                                             
     3  0  0.50      -190.2849   2.0000                                                             
     3  1  1.50      -133.6555   6.0000                                                             
     3  2  2.50       -40.6443  10.0000                                                             
     4  0  0.50       -14.4936   2.0000                                                             
     4  1  0.50        -5.1947   3.0000                                                             
     4  2  1.50        -5.4423   0.0000                                                             
     4  3  2.50        -5.4423   0.0000                                                             
   Description                                                                                      
     l       E           TYP  RCUT    TYP  RCUT                                                     
     0    -14.4935570     23  2.100                                                                 
     0    -11.9212055     23  2.100                                                                 
     1     -5.1947127     23  2.100                                                                 
     1     27.2116520     23  2.100                                                                 
     2     -5.4423304     23  2.100                                                                 
     3     -1.3605826      7  2.100                                                                 
  local pseudopotential read in
  partial core-charges read in
  partial kinetic energy density read in
  atomic valenz-charges read in
  non local Contribution for L=           0  read in
    real space projection operators read in
  non local Contribution for L=           0  read in
    real space projection operators read in
  non local Contribution for L=           1  read in
    real space projection operators read in
  non local Contribution for L=           1  read in
    real space projection operators read in
  non local Contribution for L=           2  read in
    real space projection operators read in
    PAW grid and wavefunctions read in
 
   number of l-projection  operators is LMAX  =           5
   number of lm-projection operators is LMMAX =          13
 
 POTCAR:    PAW_PBE S 06Sep2000                   
   VRHFIN =S : s2p4                                                                                 
   LEXCH  = PE                                                                                      
   EATOM  =   276.8230 eV,   20.3459 Ry                                                             
                                                                                                    
   TITEL  = PAW_PBE S 06Sep2000                                                                     
   LULTRA =        F    use ultrasoft PP ?                                                          
   IUNSCR =        1    unscreen: 0-lin 1-nonlin 2-no                                               
   RPACOR =    1.500    partial core radius                                                         
   POMASS =   32.066; ZVAL   =    6.000    mass and valenz                                          
   RCORE  =    1.900    outmost cutoff radius                                                       
   RWIGS  =    2.200; RWIGS  =    1.164    wigner-seitz radius (au A)                               
   ENMAX  =  258.689; ENMIN  =  194.016 eV                                                          
   ICORE  =        2    local potential                                                             
   LCOR   =        T    correct aug charges                                                         
   LPAW   =        T    paw PP                                                                      
   EAUG   =  335.092                                                                                
   DEXC   =    0.000                                                                                
   RMAX   =    1.942    core radius for proj-oper                                                   
   RAUG   =    1.300    factor for augmentation sphere                                              
   RDEP   =    1.954    radius for radial grids                                                     
   RDEPT  =    1.744    core radius for aug-charge                                                  
                                                                                                    
   Atomic configuration                                                                             
    6 entries                                                                                       
     n  l   j            E        occ.                                                              
     1  0  0.50     -2405.8406   2.0000                                                             
     2  0  0.50      -211.7007   2.0000                                                             
     2  1  1.50      -156.4958   6.0000                                                             
     3  0  0.50       -17.2562   2.0000                                                             
     3  1  0.50        -7.0085   4.0000                                                             
     3  2  1.50        -6.8029   0.0000                                                             
   Description                                                                                      
     l       E           TYP  RCUT    TYP  RCUT                                                     
     0    -17.2561641     23  1.900                                                                 
     0    -15.8743224     23  1.900                                                                 
     1     -7.0085400     23  1.900                                                                 
     1     -2.7779785     23  1.900                                                                 
     2     -6.8029130     23  1.900                                                                 
  local pseudopotential read in
  partial core-charges read in
  partial kinetic energy density read in
  atomic valenz-charges read in
  non local Contribution for L=           0  read in
    real space projection operators read in
  non local Contribution for L=           0  read in
    real space projection operators read in
  non local Contribution for L=           1  read in
    real space projection operators read in
  non local Contribution for L=           1  read in
    real space projection operators read in
    PAW grid and wavefunctions read in
 
   number of l-projection  operators is LMAX  =           4
   number of lm-projection operators is LMMAX =           8
 
 POTCAR:    PAW_PBE O 08Apr2002                   
   VRHFIN =O: s2p4                                                                                  
   LEXCH  = PE                                                                                      
   EATOM  =   432.3788 eV,   31.7789 Ry                                                             
                                                                                                    
   TITEL  = PAW_PBE O 08Apr2002                                                                     
   LULTRA =        F    use ultrasoft PP ?                                                          
   IUNSCR =        1    unscreen: 0-lin 1-nonlin 2-no                                               
   RPACOR =    1.200    partial core radius                                                         
   POMASS =   16.000; ZVAL   =    6.000    mass and valenz                                          
   RCORE  =    1.520    outmost cutoff radius                                                       
   RWIGS  =    1.550; RWIGS  =    0.820    wigner-seitz radius (au A)                               
   ENMAX  =  400.000; ENMIN  =  300.000 eV                                                          
   ICORE  =        2    local potential                                                             
   LCOR   =        T    correct aug charges                                                         
   LPAW   =        T    paw PP                                                                      
   EAUG   =  605.392                                                                                
   DEXC   =    0.000                                                                                
   RMAX   =    1.553    core radius for proj-oper                                                   
   RAUG   =    1.300    factor for augmentation sphere                                              
   RDEP   =    1.550    radius for radial grids                                                     
   RDEPT  =    1.329    core radius for aug-charge                                                  
                                                                                                    
   Atomic configuration                                                                             
    4 entries                                                                                       
     n  l   j            E        occ.                                                              
     1  0  0.50      -514.6923   2.0000                                                             
     2  0  0.50       -23.9615   2.0000                                                             
     2  1  0.50        -9.0305   4.0000                                                             
     3  2  1.50        -9.5241   0.0000                                                             
   Description                                                                                      
     l       E           TYP  RCUT    TYP  RCUT                                                     
     0    -23.9615318     23  1.200                                                                 
     0     -9.5240782     23  1.200                                                                 
     1     -9.0304911     23  1.520                                                                 
     1      8.1634956     23  1.520                                                                 
     2     -9.5240782      7  1.500                                                                 
  local pseudopotential read in
  partial core-charges read in
  partial kinetic energy density read in
  kinetic energy density of atom read in
  atomic valenz-charges read in
  non local Contribution for L=           0  read in
    real space projection operators read in
  non local Contribution for L=           0  read in
    real space projection operators read in
  non local Contribution for L=           1  read in
    real space projection operators read in
  non local Contribution for L=           1  read in
    real space projection operators read in
    PAW grid and wavefunctions read in
 
   number of l-projection  operators is LMAX  =           4
   number of lm-projection operators is LMMAX =           8
 
 Optimization of the real space projectors (new method)

 maximal supplied QI-value         = 17.95
 optimisation between [QCUT,QGAM] = [ 12.39, 24.95] = [ 42.97,174.37] Ry 
 Optimized for a Real-space Cutoff    1.20 Angstroem

   l    n(q)    QCUT    max X(q) W(low)/X(q) W(high)/X(q)  e(spline) 
   0      9    12.387   117.213    0.21E-03    0.15E-03    0.54E-07
   0      9    12.387    98.411    0.21E-03    0.15E-03    0.54E-07
   1      8    12.387    10.093    0.17E-03    0.15E-03    0.16E-06
   1      8    12.387     5.228    0.16E-03    0.13E-03    0.15E-06
   2      8    12.387     4.067    0.21E-03    0.15E-03    0.37E-07
 Optimization of the real space projectors (new method)

 maximal supplied QI-value         = 19.84
 optimisation between [QCUT,QGAM] = [ 12.50, 25.00] = [ 43.76,175.03] Ry 
 Optimized for a Real-space Cutoff    1.20 Angstroem

   l    n(q)    QCUT    max X(q) W(low)/X(q) W(high)/X(q)  e(spline) 
   0      9    12.501   187.594    0.48E-04    0.69E-04    0.85E-07
   0      9    12.501   164.243    0.48E-04    0.68E-04    0.84E-07
   1      8    12.501    67.533    0.11E-03    0.13E-03    0.89E-07
   1      8    12.501    50.729    0.11E-03    0.13E-03    0.87E-07
 Optimization of the real space projectors (new method)

 maximal supplied QI-value         = 24.76
 optimisation between [QCUT,QGAM] = [ 12.38, 25.00] = [ 42.90,175.06] Ry 
 Optimized for a Real-space Cutoff    1.16 Angstroem

   l    n(q)    QCUT    max X(q) W(low)/X(q) W(high)/X(q)  e(spline) 
   0      9    12.378    20.381    0.16E-03    0.67E-05    0.31E-06
   0      9    12.378    15.268    0.17E-03    0.81E-05    0.33E-06
   1      8    12.378     5.964    0.20E-03    0.16E-03    0.30E-06
   1      8    12.378     5.382    0.18E-03    0.14E-03    0.26E-06
  PAW_PBE As 22Sep2009                  :
 energy of atom  1       EATOM= -170.1867
 kinetic energy error for atom=    0.0004 (will be added to EATOM!!)
  PAW_PBE S 06Sep2000                   :
 energy of atom  2       EATOM= -276.8230
 kinetic energy error for atom=    0.0009 (will be added to EATOM!!)
  PAW_PBE O 08Apr2002                   :
 energy of atom  3       EATOM= -432.3788
 kinetic energy error for atom=    0.0168 (will be added to EATOM!!)
 
 
 POSCAR: As8 S8 O36
  positions in direct lattice
  velocities in cartesian coordinates
 exchange correlation table for  LEXCH =        8
   RHO(1)=    0.500       N(1)  =     2000
   RHO(2)=  100.500       N(2)  =     4000
 


--------------------------------------------------------------------------------------------------------


 ion  position               nearest neighbor table
   1  0.748  0.807  0.471-  36 1.79  29 1.90  21 1.95
   2  0.752  0.807  0.971-  35 1.79  30 1.90  22 1.95
   3  0.598  0.688  0.293-  36 1.79  31 1.94  23 1.95
   4  0.902  0.688  0.793-  35 1.79  32 1.94  24 1.95
   5  0.098  0.312  0.207-  34 1.79  40 1.94  48 1.95
   6  0.402  0.312  0.707-  33 1.79  39 1.94  47 1.95
   7  0.248  0.193  0.029-  34 1.79  38 1.90  46 1.95
   8  0.252  0.193  0.529-  33 1.79  37 1.90  45 1.95
   9  0.073  0.782  0.325-  17 1.44  19 1.46  23 1.54  21 1.55
  10  0.427  0.782  0.825-  18 1.44  20 1.46  24 1.54  22 1.55
  11  0.729  0.353  0.428-  25 1.44  27 1.46  31 1.53  29 1.55
  12  0.771  0.353  0.928-  26 1.44  28 1.46  32 1.53  30 1.55
  13  0.573  0.218  0.175-  52 1.44  50 1.46  48 1.54  46 1.55
  14  0.927  0.218  0.675-  51 1.44  49 1.46  47 1.54  45 1.55
  15  0.229  0.647  0.072-  44 1.44  42 1.46  40 1.53  38 1.55
  16  0.271  0.647  0.572-  43 1.44  41 1.46  39 1.53  37 1.55
  17  0.126  0.974  0.286-   9 1.44
  18  0.374  0.974  0.786-  10 1.44
  19  0.235  0.633  0.327-   9 1.46
  20  0.265  0.633  0.827-  10 1.46
  21  0.008  0.811  0.414-   9 1.55   1 1.95
  22  0.492  0.811  0.914-  10 1.55   2 1.95
  23  0.893  0.687  0.282-   9 1.54   3 1.95
  24  0.607  0.687  0.782-  10 1.54   4 1.95
  25  0.933  0.299  0.406-  11 1.44
  26  0.567  0.299  0.906-  12 1.44
  27  0.610  0.192  0.469-  11 1.46
  28  0.890  0.192  0.969-  12 1.46
  29  0.734  0.524  0.488-  11 1.55   1 1.90
  30  0.766  0.524  0.988-  12 1.55   2 1.90
  31  0.605  0.431  0.354-  11 1.53   3 1.94
  32  0.895  0.431  0.854-  12 1.53   4 1.94
  33  0.400  0.164  0.620-   8 1.79   6 1.79
  34  0.100  0.164  0.120-   7 1.79   5 1.79
  35  0.900  0.836  0.880-   2 1.79   4 1.79
  36  0.600  0.836  0.380-   1 1.79   3 1.79
  37  0.266  0.476  0.512-  16 1.55   8 1.90
  38  0.234  0.476  0.012-  15 1.55   7 1.90
  39  0.395  0.569  0.646-  16 1.53   6 1.94
  40  0.105  0.569  0.146-  15 1.53   5 1.94
  41  0.390  0.808  0.531-  16 1.46
  42  0.110  0.808  0.031-  15 1.46
  43  0.067  0.701  0.594-  16 1.44
  44  0.433  0.701  0.094-  15 1.44
  45  0.992  0.189  0.586-  14 1.55   8 1.95
  46  0.508  0.189  0.086-  13 1.55   7 1.95
  47  0.107  0.313  0.718-  14 1.54   6 1.95
  48  0.393  0.313  0.218-  13 1.54   5 1.95
  49  0.765  0.367  0.673-  14 1.46
  50  0.735  0.367  0.173-  13 1.46
  51  0.874  0.026  0.714-  14 1.44
  52  0.626  0.026  0.214-  13 1.44
 
  LATTYP: Found a simple monoclinic cell.
 ALAT       =     6.7030214051
 B/A-ratio  =     0.9807251485
 C/A-ratio  =     2.4525453431
 COS(beta)  =    -0.0664284387
  
  Lattice vectors:
  
 A1 = (   0.0000000000,   6.6851784453,   0.4887587448)
 A2 = (   6.5738216627,   0.0000000000,   0.0000000000)
 A3 = (   0.0000000000,   0.1069143099, -16.4391162686)


Analysis of symmetry for initial positions (statically):
=====================================================================
 Subroutine PRICEL returns:
 Original cell was already a primitive cell.
 

 Routine SETGRP: Setting up the symmetry group for a 
 simple monoclinic supercell.


 Subroutine GETGRP returns: Found  4 space group operations
 (whereof  2 operations were pure point group operations)
 out of a pool of  4 trial point group operations.


The static configuration has the point symmetry S_2 .
 The point group associated with its full space group is C_2h.


Analysis of symmetry for dynamics (positions and initial velocities):
=====================================================================
 Subroutine PRICEL returns:
 Original cell was already a primitive cell.
 

 Routine SETGRP: Setting up the symmetry group for a 
 simple monoclinic supercell.


 Subroutine GETGRP returns: Found  4 space group operations
 (whereof  2 operations were pure point group operations)
 out of a pool of  4 trial point group operations.


The dynamic configuration has the point symmetry S_2 .
 The point group associated with its full space group is C_2h.


 Subroutine INISYM returns: Found  4 space group operations
 (whereof  2 operations are pure point group operations),
 and found     1 'primitive' translations


----------------------------------------------------------------------------------------

                                     Primitive cell                                     

  volume of cell :     722.7962

  direct lattice vectors                    reciprocal lattice vectors
     6.573821663  0.000000000  0.000000000     0.152118517 -0.000000000 -0.000000000
     0.000000000  6.685178445  0.488758745    -0.000000000  0.149513547  0.000972384
     0.000000000 -0.106914310 16.439116269    -0.000000000 -0.004445254  0.060801610

  length of vectors
     6.573821663  6.703021405 16.439463932     0.152118517  0.149516709  0.060963892

  position of ions in fractional coordinates (direct lattice)
     0.748445243  0.807104300  0.470895027
     0.751554757  0.807104300  0.970895027
     0.597803897  0.688282415  0.293039705
     0.902196103  0.688282415  0.793039705
     0.097803897  0.311717585  0.206960295
     0.402196103  0.311717585  0.706960295
     0.248445243  0.192895700  0.029104973
     0.251554757  0.192895700  0.529104973
     0.073124299  0.782104867  0.325109960
     0.426875701  0.782104867  0.825109960
     0.729416511  0.352776831  0.428493756
     0.770583489  0.352776831  0.928493756
     0.573124299  0.217895133  0.174890040
     0.926875701  0.217895133  0.674890040
     0.229416511  0.647223169  0.071506244
     0.270583489  0.647223169  0.571506244
     0.125958607  0.974098715  0.285795297
     0.374041393  0.974098715  0.785795297
     0.234962193  0.633138714  0.326951674
     0.265037807  0.633138714  0.826951674
     0.008189192  0.810546297  0.413977143
     0.491810808  0.810546297  0.913977143
     0.892621458  0.687447671  0.282466811
     0.607378542  0.687447671  0.782466811
     0.932776419  0.298708201  0.405750187
     0.567223581  0.298708201  0.905750187
     0.609912539  0.192117377  0.469198480
     0.890087461  0.192117377  0.969198480
     0.734270899  0.523821511  0.487704637
     0.765729101  0.523821511  0.987704637
     0.605241875  0.430809338  0.353961962
     0.894758125  0.430809338  0.853961962
     0.400123575  0.164489203  0.620192668
     0.099876425  0.164489203  0.120192668
     0.900123575  0.835510797  0.879807332
     0.599876425  0.835510797  0.379807332
     0.265729101  0.476178489  0.512295363
     0.234270899  0.476178489  0.012295363
     0.394758125  0.569190662  0.646038038
     0.105241875  0.569190662  0.146038038
     0.390087461  0.807882623  0.530801520
     0.109912539  0.807882623  0.030801520
     0.067223581  0.701291799  0.594249813
     0.432776419  0.701291799  0.094249813
     0.991810808  0.189453703  0.586022857
     0.508189192  0.189453703  0.086022857
     0.107378542  0.312552329  0.717533189
     0.392621458  0.312552329  0.217533189
     0.765037807  0.366861286  0.673048326
     0.734962193  0.366861286  0.173048326
     0.874041393  0.025901285  0.714204703
     0.625958607  0.025901285  0.214204703

  ion indices of the primitive-cell ions
   primitive index   ion index
                 1           1
                 2           2
                 3           3
                 4           4
                 5           5
                 6           6
                 7           7
                 8           8
                 9           9
                10          10
                11          11
                12          12
                13          13
                14          14
                15          15
                16          16
                17          17
                18          18
                19          19
                20          20
                21          21
                22          22
                23          23
                24          24
                25          25
                26          26
                27          27
                28          28
                29          29
                30          30
                31          31
                32          32
                33          33
                34          34
                35          35
                36          36
                37          37
                38          38
                39          39
                40          40
                41          41
                42          42
                43          43
                44          44
                45          45
                46          46
                47          47
                48          48
                49          49
                50          50
                51          51
                52          52

----------------------------------------------------------------------------------------

 
 
 KPOINTS: pymatgen with grid density = 3000 / numb

Automatic generation of k-mesh.
 Grid dimensions read from file:
 generate k-points for:    8    8    3

 Generating k-lattice:

  Cartesian coordinates                     Fractional coordinates (reciprocal lattice)
     0.019014815 -0.000000000 -0.000000000     0.125000000 -0.000000000  0.000000000
    -0.000000000  0.018689193  0.000121548    -0.000000000  0.125000000  0.000000000
    -0.000000000 -0.001481751  0.020267203    -0.000000000 -0.000000000  0.333333333

  Length of vectors
     0.019014815  0.018689589  0.020321297

  Shift w.r.t. Gamma in fractional coordinates (k-lattice)
     0.000000000  0.000000000  0.000000000

 TETIRR: Found    576 inequivalent tetrahedra from     1152
 
 Subroutine IBZKPT returns following result:
 ===========================================
 
 Found     65 irreducible k-points:
 
 Following reciprocal coordinates:
            Coordinates               Weight
  0.000000  0.000000  0.000000      1.000000
  0.125000 -0.000000  0.000000      2.000000
  0.250000 -0.000000  0.000000      2.000000
  0.375000  0.000000  0.000000      2.000000
  0.500000 -0.000000  0.000000      1.000000
  0.000000  0.125000  0.000000      2.000000
  0.125000  0.125000  0.000000      4.000000
  0.250000  0.125000  0.000000      4.000000
  0.375000  0.125000 -0.000000      4.000000
  0.500000  0.125000  0.000000      2.000000
  0.000000  0.250000  0.000000      2.000000
  0.125000  0.250000 -0.000000      4.000000
  0.250000  0.250000  0.000000      4.000000
  0.375000  0.250000  0.000000      4.000000
  0.500000  0.250000  0.000000      2.000000
  0.000000  0.375000 -0.000000      2.000000
  0.125000  0.375000 -0.000000      4.000000
  0.250000  0.375000  0.000000      4.000000
  0.375000  0.375000  0.000000      4.000000
  0.500000  0.375000  0.000000      2.000000
  0.000000  0.500000  0.000000      1.000000
  0.125000  0.500000  0.000000      2.000000
  0.250000  0.500000 -0.000000      2.000000
  0.375000  0.500000  0.000000      2.000000
  0.500000  0.500000  0.000000      1.000000
  0.000000  0.000000  0.333333      2.000000
  0.125000  0.000000  0.333333      4.000000
  0.250000  0.000000  0.333333      4.000000
  0.375000  0.000000  0.333333      4.000000
  0.500000  0.000000  0.333333      2.000000
  0.000000  0.125000  0.333333      2.000000
  0.125000  0.125000  0.333333      4.000000
  0.250000  0.125000  0.333333      4.000000
  0.375000  0.125000  0.333333      4.000000
  0.500000  0.125000  0.333333      2.000000
  0.000000  0.250000  0.333333      2.000000
  0.125000  0.250000  0.333333      4.000000
  0.250000  0.250000  0.333333      4.000000
  0.375000  0.250000  0.333333      4.000000
  0.500000  0.250000  0.333333      2.000000
  0.000000  0.375000  0.333333      2.000000
  0.125000  0.375000  0.333333      4.000000
  0.250000  0.375000  0.333333      4.000000
  0.375000  0.375000  0.333333      4.000000
  0.500000  0.375000  0.333333      2.000000
  0.000000  0.500000  0.333333      2.000000
  0.125000  0.500000  0.333333      4.000000
  0.250000  0.500000  0.333333      4.000000
  0.375000  0.500000  0.333333      4.000000
  0.500000  0.500000  0.333333      2.000000
  0.000000 -0.375000  0.333333      2.000000
  0.125000 -0.375000  0.333333      4.000000
  0.250000 -0.375000  0.333333      4.000000
  0.375000 -0.375000  0.333333      4.000000
  0.500000 -0.375000  0.333333      2.000000
  0.000000 -0.250000  0.333333      2.000000
  0.125000 -0.250000  0.333333      4.000000
  0.250000 -0.250000  0.333333      4.000000
  0.375000 -0.250000  0.333333      4.000000
  0.500000 -0.250000  0.333333      2.000000
  0.000000 -0.125000  0.333333      2.000000
  0.125000 -0.125000  0.333333      4.000000
  0.250000 -0.125000  0.333333      4.000000
  0.375000 -0.125000  0.333333      4.000000
  0.500000 -0.125000  0.333333      2.000000
 
 Following cartesian coordinates:
            Coordinates               Weight
  0.000000  0.000000  0.000000      1.000000
  0.019015 -0.000000 -0.000000      2.000000
  0.038030 -0.000000 -0.000000      2.000000
  0.057044 -0.000000 -0.000000      2.000000
  0.076059 -0.000000 -0.000000      1.000000
 -0.000000  0.018689  0.000122      2.000000
  0.019015  0.018689  0.000122      4.000000
  0.038030  0.018689  0.000122      4.000000
  0.057044  0.018689  0.000122      4.000000
  0.076059  0.018689  0.000122      2.000000
 -0.000000  0.037378  0.000243      2.000000
  0.019015  0.037378  0.000243      4.000000
  0.038030  0.037378  0.000243      4.000000
  0.057044  0.037378  0.000243      4.000000
  0.076059  0.037378  0.000243      2.000000
 -0.000000  0.056068  0.000365      2.000000
  0.019015  0.056068  0.000365      4.000000
  0.038030  0.056068  0.000365      4.000000
  0.057044  0.056068  0.000365      4.000000
  0.076059  0.056068  0.000365      2.000000
 -0.000000  0.074757  0.000486      1.000000
  0.019015  0.074757  0.000486      2.000000
  0.038030  0.074757  0.000486      2.000000
  0.057044  0.074757  0.000486      2.000000
  0.076059  0.074757  0.000486      1.000000
 -0.000000 -0.001482  0.020267      2.000000
  0.019015 -0.001482  0.020267      4.000000
  0.038030 -0.001482  0.020267      4.000000
  0.057044 -0.001482  0.020267      4.000000
  0.076059 -0.001482  0.020267      2.000000
 -0.000000  0.017207  0.020389      2.000000
  0.019015  0.017207  0.020389      4.000000
  0.038030  0.017207  0.020389      4.000000
  0.057044  0.017207  0.020389      4.000000
  0.076059  0.017207  0.020389      2.000000
 -0.000000  0.035897  0.020510      2.000000
  0.019015  0.035897  0.020510      4.000000
  0.038030  0.035897  0.020510      4.000000
  0.057044  0.035897  0.020510      4.000000
  0.076059  0.035897  0.020510      2.000000
 -0.000000  0.054586  0.020632      2.000000
  0.019015  0.054586  0.020632      4.000000
  0.038030  0.054586  0.020632      4.000000
  0.057044  0.054586  0.020632      4.000000
  0.076059  0.054586  0.020632      2.000000
 -0.000000  0.073275  0.020753      2.000000
  0.019015  0.073275  0.020753      4.000000
  0.038030  0.073275  0.020753      4.000000
  0.057044  0.073275  0.020753      4.000000
  0.076059  0.073275  0.020753      2.000000
 -0.000000 -0.057549  0.019903      2.000000
  0.019015 -0.057549  0.019903      4.000000
  0.038030 -0.057549  0.019903      4.000000
  0.057044 -0.057549  0.019903      4.000000
  0.076059 -0.057549  0.019903      2.000000
 -0.000000 -0.038860  0.020024      2.000000
  0.019015 -0.038860  0.020024      4.000000
  0.038030 -0.038860  0.020024      4.000000
  0.057044 -0.038860  0.020024      4.000000
  0.076059 -0.038860  0.020024      2.000000
 -0.000000 -0.020171  0.020146      2.000000
  0.019015 -0.020171  0.020146      4.000000
  0.038030 -0.020171  0.020146      4.000000
  0.057044 -0.020171  0.020146      4.000000
  0.076059 -0.020171  0.020146      2.000000
 


--------------------------------------------------------------------------------------------------------




 Dimension of arrays:
   k-points           NKPTS =     65   k-points in BZ     NKDIM =     65   number of bands    NBANDS=    184
   number of dos      NEDOS =   4000   number of ions     NIONS =     52
   non local maximal  LDIM  =      5   non local SUM 2l+1 LMDIM =     13
   total plane-waves  NPLWV = 408240
   max r-space proj   IRMAX =   4095   max aug-charges    IRDMAX=  23568
   dimension x,y,z NGX =    54 NGY =   54 NGZ =  140
   dimension x,y,z NGXF=   108 NGYF=  108 NGZF=  280
   support grid    NGXF=   108 NGYF=  108 NGZF=  280
   ions per type =               8   8  36
   NGX,Y,Z   is equivalent  to a cutoff of  13.66, 13.39, 14.16 a.u.
   NGXF,Y,Z  is equivalent  to a cutoff of  27.31, 26.79, 28.32 a.u.

 SYSTEM =  unknown system                          
 POSCAR =  As8 S8 O36                              

 Startparameter for this run:
   NWRITE =      2    write-flag & timer
   PREC   = accura    normal or accurate (medium, high low for compatibility)
   ISTART =      0    job   : 0-new  1-cont  2-samecut
   ICHARG =     11    charge: 1-file 2-atom 10-const
   ISPIN  =      1    spin polarized calculation?
   LNONCOLLINEAR =      F non collinear calculations
   LSORBIT =      F    spin-orbit coupling
   INIWAV =      1    electr: 0-lowe 1-rand  2-diag
   LASPH  =      T    aspherical Exc in radial PAW
 Electronic Relaxation 1
   ENCUT  =  600.0 eV  44.10 Ry    6.64 a.u.  13.13 13.39 32.83*2*pi/ulx,y,z
   ENINI  =  600.0     initial cutoff
   ENAUG  =  605.4 eV  augmentation charge cutoff
   NELM   =    200;   NELMIN=  5; NELMDL= -5     # of ELM steps 
   EDIFF  = 0.1E-05   stopping-criterion for ELM
   LREAL  =      T    real-space projection
   NLSPLINE    = F    spline interpolate recip. space projectors
   LCOMPAT=      F    compatible to vasp.4.4
   GGA_COMPAT  = T    GGA compatible to vasp.4.4-vasp.4.6
   LMAXPAW     = -100 max onsite density
   LMAXMIX     =    4 max onsite mixed and CHGCAR
   VOSKOWN=      0    Vosko Wilk Nusair interpolation
   ROPT   =   -0.00025  -0.00025  -0.00025
 Ionic relaxation
   EDIFFG = 0.1E-04   stopping-criterion for IOM
   NSW    =      0    number of steps for IOM
   NBLOCK =      1;   KBLOCK =      1    inner block; outer block 
   IBRION =     -1    ionic relax: 0-MD 1-quasi-New 2-CG
   NFREE  =      0    steps in history (QN), initial steepest desc. (CG)
   ISIF   =      2    stress and relaxation
   IWAVPR =     10    prediction:  0-non 1-charg 2-wave 3-comb
   ISYM   =      2    0-nonsym 1-usesym 2-fastsym
   LCORR  =      T    Harris-Foulkes like correction to forces

   POTIM  = 0.5000    time-step for ionic-motion
   TEIN   =    0.0    initial temperature
   TEBEG  =    0.0;   TEEND  =   0.0 temperature during run
   SMASS  =  -3.00    Nose mass-parameter (am)
   estimated Nose-frequenzy (Omega)   =  0.10E-29 period in steps = 0.13E+47 mass=  -0.988E-27a.u.
   SCALEE = 1.0000    scale energy and forces
   NPACO  =    256;   APACO  = 10.0  distance and # of slots for P.C.
   PSTRESS=    0.0 pullay stress

  Mass of Ions in am
   POMASS =  74.92 32.07 16.00
  Ionic Valenz
   ZVAL   =   5.00  6.00  6.00
  Atomic Wigner-Seitz radii
   RWIGS  =  -1.00 -1.00 -1.00
  virtual crystal weights 
   VCA    =   1.00  1.00  1.00
   NELECT =     304.0000    total number of electrons
   NUPDOWN=      -1.0000    fix difference up-down

 DOS related values:
   EMIN   =  10.00;   EMAX   =-10.00  energy-range for DOS
   EFERMI =   0.00
   ISMEAR =    -5;   SIGMA  =   0.20  broadening in eV -4-tet -1-fermi 0-gaus

 Electronic relaxation 2 (details)
   IALGO  =     68    algorithm
   LDIAG  =      T    sub-space diagonalisation (order eigenvalues)
   LSUBROT=      F    optimize rotation matrix (better conditioning)
   TURBO    =      0    0=normal 1=particle mesh
   IRESTART =      0    0=no restart 2=restart with 2 vectors
   NREBOOT  =      0    no. of reboots
   NMIN     =      0    reboot dimension
   EREF     =   0.00    reference energy to select bands
   IMIX   =      4    mixing-type and parameters
     AMIX     =   0.40;   BMIX     =  1.00
     AMIX_MAG =   1.60;   BMIX_MAG =  1.00
     AMIN     =   0.10
     WC   =   100.;   INIMIX=   1;  MIXPRE=   1;  MAXMIX= -45

 Intra band minimization:
   WEIMIN = 0.0000     energy-eigenvalue tresh-hold
   EBREAK =  0.14E-08  absolut break condition
   DEPER  =   0.30     relativ break condition  

   TIME   =   0.40     timestep for ELM

  volume/ion in A,a.u.               =      13.90        93.80
  Fermi-wavevector in a.u.,A,eV,Ry     =   1.226575  2.317890 20.469775  1.504486
  Thomas-Fermi vector in A             =   2.361571
 
 Write flags
   LWAVE        =      F    write WAVECAR
   LDOWNSAMPLE  =      F    k-point downsampling of WAVECAR
   LCHARG       =      F    write CHGCAR
   LVTOT        =      F    write LOCPOT, total local potential
   LVHAR        =      F    write LOCPOT, Hartree potential only
   LELF         =      F    write electronic localiz. function (ELF)
   LORBIT       =     11    0 simple, 1 ext, 2 COOP (PROOUT), +10 PAW based schemes


 Dipole corrections
   LMONO  =      F    monopole corrections only (constant potential shift)
   LDIPOL =      F    correct potential (dipole corrections)
   IDIPOL =      0    1-x, 2-y, 3-z, 4-all directions 
   EPSILON=  1.0000000 bulk dielectric constant

 Exchange correlation treatment:
   GGA     =    --    GGA type
   LEXCH   =     8    internal setting for exchange type
   LIBXC   =     F    Libxc                    
   VOSKOWN =     0    Vosko Wilk Nusair interpolation
   LHFCALC =     F    Hartree Fock is set to
   LHFONE  =     F    Hartree Fock one center treatment
   AEXX    =    0.0000 exact exchange contribution

 Linear response parameters
   LEPSILON=     F    determine dielectric tensor
   LRPA    =     F    only Hartree local field effects (RPA)
   LNABLA  =     F    use nabla operator in PAW spheres
   LVEL    =     F    velocity operator in full k-point grid
   CSHIFT  =0.1000    complex shift for real part using Kramers Kronig
   OMEGAMAX=  -1.0    maximum frequency
   DEG_THRESHOLD= 0.2000000E-02 threshold for treating states as degnerate
   RTIME   =   -0.100 relaxation time in fs
  (WPLASMAI=    0.000 imaginary part of plasma frequency in eV, 0.658/RTIME)
   DFIELD  = 0.0000000 0.0000000 0.0000000 field for delta impulse in time
 
  Optional k-point grid parameters
   LKPOINTS_OPT  =     F    use optional k-point grid
   KPOINTS_OPT_MODE=     1    mode for optional k-point grid
 
 Orbital magnetization related:
   ORBITALMAG=     F  switch on orbital magnetization
   LCHIMAG   =     F  perturbation theory with respect to B field
   DQ        =  0.001000  dq finite difference perturbation B field
   LLRAUG    =     F  two centre corrections for induced B field



--------------------------------------------------------------------------------------------------------


 Static calculation
 charge density and potential remain constant during run
 non-spin polarized calculation
 RMM-DIIS sequential band-by-band and
  variant of blocked Davidson during initial phase
 perform sub-space diagonalisation
    before iterative eigenvector-optimisation
 no mixing
 using additional bands           32
 real space projection scheme for non local part
 use partial core corrections
 calculate Harris-corrections to forces 
   (improved forces if not selfconsistent)
 use gradient corrections 
 WARNING: stress and forces are not correct
  (second derivative of E(xc) not defined)
 use of overlap-Matrix (Vanderbilt PP)
 Fermi weights with tetrahedron method with Bloechl corrections


--------------------------------------------------------------------------------------------------------


  energy-cutoff  :      600.00
  volume of cell :      722.80
      direct lattice vectors                 reciprocal lattice vectors
     6.573821663  0.000000000  0.000000000     0.152118517 -0.000000000 -0.000000000
     0.000000000  6.685178445  0.488758745    -0.000000000  0.149513547  0.000972384
     0.000000000 -0.106914310 16.439116269    -0.000000000 -0.004445254  0.060801610

  length of vectors
     6.573821663  6.703021405 16.439463932     0.152118517  0.149516709  0.060963892


 
 k-points in units of 2pi/SCALE and weight: pymatgen with grid density = 3000 / numb
   0.00000000  0.00000000  0.00000000       0.005
   0.01901481 -0.00000000 -0.00000000       0.010
   0.03802963 -0.00000000 -0.00000000       0.010
   0.05704444 -0.00000000 -0.00000000       0.010
   0.07605926 -0.00000000 -0.00000000       0.005
  -0.00000000  0.01868919  0.00012155       0.010
   0.01901481  0.01868919  0.00012155       0.021
   0.03802963  0.01868919  0.00012155       0.021
   0.05704444  0.01868919  0.00012155       0.021
   0.07605926  0.01868919  0.00012155       0.010
  -0.00000000  0.03737839  0.00024310       0.010
   0.01901481  0.03737839  0.00024310       0.021
   0.03802963  0.03737839  0.00024310       0.021
   0.05704444  0.03737839  0.00024310       0.021
   0.07605926  0.03737839  0.00024310       0.010
  -0.00000000  0.05606758  0.00036464       0.010
   0.01901481  0.05606758  0.00036464       0.021
   0.03802963  0.05606758  0.00036464       0.021
   0.05704444  0.05606758  0.00036464       0.021
   0.07605926  0.05606758  0.00036464       0.010
  -0.00000000  0.07475677  0.00048619       0.005
   0.01901481  0.07475677  0.00048619       0.010
   0.03802963  0.07475677  0.00048619       0.010
   0.05704444  0.07475677  0.00048619       0.010
   0.07605926  0.07475677  0.00048619       0.005
  -0.00000000 -0.00148175  0.02026720       0.010
   0.01901481 -0.00148175  0.02026720       0.021
   0.03802963 -0.00148175  0.02026720       0.021
   0.05704444 -0.00148175  0.02026720       0.021
   0.07605926 -0.00148175  0.02026720       0.010
  -0.00000000  0.01720744  0.02038875       0.010
   0.01901481  0.01720744  0.02038875       0.021
   0.03802963  0.01720744  0.02038875       0.021
   0.05704444  0.01720744  0.02038875       0.021
   0.07605926  0.01720744  0.02038875       0.010
  -0.00000000  0.03589664  0.02051030       0.010
   0.01901481  0.03589664  0.02051030       0.021
   0.03802963  0.03589664  0.02051030       0.021
   0.05704444  0.03589664  0.02051030       0.021
   0.07605926  0.03589664  0.02051030       0.010
  -0.00000000  0.05458583  0.02063185       0.010
   0.01901481  0.05458583  0.02063185       0.021
   0.03802963  0.05458583  0.02063185       0.021
   0.05704444  0.05458583  0.02063185       0.021
   0.07605926  0.05458583  0.02063185       0.010
  -0.00000000  0.07327502  0.02075340       0.010
   0.01901481  0.07327502  0.02075340       0.021
   0.03802963  0.07327502  0.02075340       0.021
   0.05704444  0.07327502  0.02075340       0.021
   0.07605926  0.07327502  0.02075340       0.010
  -0.00000000 -0.05754933  0.01990256       0.010
   0.01901481 -0.05754933  0.01990256       0.021
   0.03802963 -0.05754933  0.01990256       0.021
   0.05704444 -0.05754933  0.01990256       0.021
   0.07605926 -0.05754933  0.01990256       0.010
  -0.00000000 -0.03886014  0.02002411       0.010
   0.01901481 -0.03886014  0.02002411       0.021
   0.03802963 -0.03886014  0.02002411       0.021
   0.05704444 -0.03886014  0.02002411       0.021
   0.07605926 -0.03886014  0.02002411       0.010
  -0.00000000 -0.02017094  0.02014566       0.010
   0.01901481 -0.02017094  0.02014566       0.021
   0.03802963 -0.02017094  0.02014566       0.021
   0.05704444 -0.02017094  0.02014566       0.021
   0.07605926 -0.02017094  0.02014566       0.010
 
 k-points in reciprocal lattice and weights: pymatgen with grid density = 3000 / numb
   0.00000000  0.00000000  0.00000000       0.005
   0.12500000 -0.00000000  0.00000000       0.010
   0.25000000 -0.00000000  0.00000000       0.010
   0.37500000  0.00000000  0.00000000       0.010
   0.50000000 -0.00000000  0.00000000       0.005
   0.00000000  0.12500000  0.00000000       0.010
   0.12500000  0.12500000  0.00000000       0.021
   0.25000000  0.12500000  0.00000000       0.021
   0.37500000  0.12500000 -0.00000000       0.021
   0.50000000  0.12500000  0.00000000       0.010
   0.00000000  0.25000000  0.00000000       0.010
   0.12500000  0.25000000 -0.00000000       0.021
   0.25000000  0.25000000  0.00000000       0.021
   0.37500000  0.25000000  0.00000000       0.021
   0.50000000  0.25000000  0.00000000       0.010
   0.00000000  0.37500000 -0.00000000       0.010
   0.12500000  0.37500000 -0.00000000       0.021
   0.25000000  0.37500000  0.00000000       0.021
   0.37500000  0.37500000  0.00000000       0.021
   0.50000000  0.37500000  0.00000000       0.010
   0.00000000  0.50000000  0.00000000       0.005
   0.12500000  0.50000000  0.00000000       0.010
   0.25000000  0.50000000 -0.00000000       0.010
   0.37500000  0.50000000  0.00000000       0.010
   0.50000000  0.50000000  0.00000000       0.005
   0.00000000  0.00000000  0.33333333       0.010
   0.12500000  0.00000000  0.33333333       0.021
   0.25000000  0.00000000  0.33333333       0.021
   0.37500000  0.00000000  0.33333333       0.021
   0.50000000  0.00000000  0.33333333       0.010
   0.00000000  0.12500000  0.33333333       0.010
   0.12500000  0.12500000  0.33333333       0.021
   0.25000000  0.12500000  0.33333333       0.021
   0.37500000  0.12500000  0.33333333       0.021
   0.50000000  0.12500000  0.33333333       0.010
   0.00000000  0.25000000  0.33333333       0.010
   0.12500000  0.25000000  0.33333333       0.021
   0.25000000  0.25000000  0.33333333       0.021
   0.37500000  0.25000000  0.33333333       0.021
   0.50000000  0.25000000  0.33333333       0.010
   0.00000000  0.37500000  0.33333333       0.010
   0.12500000  0.37500000  0.33333333       0.021
   0.25000000  0.37500000  0.33333333       0.021
   0.37500000  0.37500000  0.33333333       0.021
   0.50000000  0.37500000  0.33333333       0.010
   0.00000000  0.50000000  0.33333333       0.010
   0.12500000  0.50000000  0.33333333       0.021
   0.25000000  0.50000000  0.33333333       0.021
   0.37500000  0.50000000  0.33333333       0.021
   0.50000000  0.50000000  0.33333333       0.010
   0.00000000 -0.37500000  0.33333333       0.010
   0.12500000 -0.37500000  0.33333333       0.021
   0.25000000 -0.37500000  0.33333333       0.021
   0.37500000 -0.37500000  0.33333333       0.021
   0.50000000 -0.37500000  0.33333333       0.010
   0.00000000 -0.25000000  0.33333333       0.010
   0.12500000 -0.25000000  0.33333333       0.021
   0.25000000 -0.25000000  0.33333333       0.021
   0.37500000 -0.25000000  0.33333333       0.021
   0.50000000 -0.25000000  0.33333333       0.010
   0.00000000 -0.12500000  0.33333333       0.010
   0.12500000 -0.12500000  0.33333333       0.021
   0.25000000 -0.12500000  0.33333333       0.021
   0.37500000 -0.12500000  0.33333333       0.021
   0.50000000 -0.12500000  0.33333333       0.010
 
 position of ions in fractional coordinates (direct lattice) 
   0.74844524  0.80710430  0.47089503
   0.75155476  0.80710430  0.97089503
   0.59780390  0.68828241  0.29303970
   0.90219610  0.68828241  0.79303970
   0.09780390  0.31171759  0.20696030
   0.40219610  0.31171759  0.70696030
   0.24844524  0.19289570  0.02910497
   0.25155476  0.19289570  0.52910497
   0.07312430  0.78210487  0.32510996
   0.42687570  0.78210487  0.82510996
   0.72941651  0.35277683  0.42849376
   0.77058349  0.35277683  0.92849376
   0.57312430  0.21789513  0.17489004
   0.92687570  0.21789513  0.67489004
   0.22941651  0.64722317  0.07150624
   0.27058349  0.64722317  0.57150624
   0.12595861  0.97409872  0.28579530
   0.37404139  0.97409872  0.78579530
   0.23496219  0.63313871  0.32695167
   0.26503781  0.63313871  0.82695167
   0.00818919  0.81054630  0.41397714
   0.49181081  0.81054630  0.91397714
   0.89262146  0.68744767  0.28246681
   0.60737854  0.68744767  0.78246681
   0.93277642  0.29870820  0.40575019
   0.56722358  0.29870820  0.90575019
   0.60991254  0.19211738  0.46919848
   0.89008746  0.19211738  0.96919848
   0.73427090  0.52382151  0.48770464
   0.76572910  0.52382151  0.98770464
   0.60524188  0.43080934  0.35396196
   0.89475812  0.43080934  0.85396196
   0.40012357  0.16448920  0.62019267
   0.09987643  0.16448920  0.12019267
   0.90012357  0.83551080  0.87980733
   0.59987643  0.83551080  0.37980733
   0.26572910  0.47617849  0.51229536
   0.23427090  0.47617849  0.01229536
   0.39475812  0.56919066  0.64603804
   0.10524188  0.56919066  0.14603804
   0.39008746  0.80788262  0.53080152
   0.10991254  0.80788262  0.03080152
   0.06722358  0.70129180  0.59424981
   0.43277642  0.70129180  0.09424981
   0.99181081  0.18945370  0.58602286
   0.50818919  0.18945370  0.08602286
   0.10737854  0.31255233  0.71753319
   0.39262146  0.31255233  0.21753319
   0.76503781  0.36686129  0.67304833
   0.73496219  0.36686129  0.17304833
   0.87404139  0.02590128  0.71420470
   0.62595861  0.02590128  0.21420470
 
 position of ions in cartesian coordinates  (Angst):
   4.92014555  5.34529085  8.13557739
   4.94058694  5.29183370 16.35513552
   3.92985621  4.56996062  5.15371783
   5.93087628  4.51650347 13.37327596
   0.64294538  2.06176067  3.55459905
   2.64396545  2.00830351 11.77415719
   1.63323472  1.28643044  0.57273949
   1.65367611  1.23297329  8.79229762
   0.48070610  5.19375169  5.72678103
   2.80620473  5.14029453 13.94633916
   4.79505406  2.31256395  7.21648144
   5.06567844  2.25910680 15.43603958
   3.76761693  1.43796960  2.98153585
   6.09311556  1.38451245 11.20109399
   1.50814323  4.31915734  1.49183544
   1.77876760  4.26570018  9.71139357
   0.82802942  6.48146813  5.17432139
   2.45888141  6.42801097 13.39387952
   1.54459955  4.19768947  5.68424867
   1.74231128  4.14423232 13.90380680
   0.05383428  5.37438655  7.20157997
   3.23307655  5.32092940 15.42113810
   5.86793428  4.56551061  4.97950081
   3.99279821  4.51205345 13.19905894
   6.13190583  1.95353713  6.81617075
   3.72882667  1.90007997 15.03572888
   4.00945626  1.23417491  7.80710741
   5.85127624  1.18071776 16.02666554
   4.82696594  3.44969767  8.27345558
   5.03376655  3.39624052 16.49301371
   3.97875215  2.84219370  6.02938367
   5.88198034  2.78873654 14.24894181
   2.63034102  1.03333220 10.27581492
   0.65656981  1.08678936  2.05625678
   5.91725185  5.49147478 14.87161823
   3.94348064  5.54493193  6.65206010
   1.74685572  3.12856646  8.65441944
   1.54005511  3.18202362  0.43486130
   2.59506951  3.73607044 10.89849134
   0.69184132  3.78952759  2.67893321
   2.56436540  5.34408922  9.12076760
   0.72254543  5.39754638  0.90120947
   0.44191583  4.62472701 10.11170427
   2.84499500  4.67818416  1.89214613
   6.51998738  1.20387758  9.72629504
   3.34074512  1.25733474  1.50673691
   0.70588738  2.01275353 11.94837421
   2.58102345  2.06621068  3.72881607
   5.02922211  2.38057466 11.24362635
   4.83151038  2.43403182  3.02406821
   5.74579224  0.09679601 11.75355363
   4.11494025  0.15025316  3.53399549
 


--------------------------------------------------------------------------------------------------------


 k-point   1 :   0.0000 0.0000 0.0000  plane waves:   24129
 k-point   2 :   0.1250-0.0000 0.0000  plane waves:   24105
 k-point   3 :   0.2500-0.0000 0.0000  plane waves:   24132
 k-point   4 :   0.3750 0.0000 0.0000  plane waves:   24156
 k-point   5 :   0.5000-0.0000 0.0000  plane waves:   24150
 k-point   6 :   0.0000 0.1250 0.0000  plane waves:   24106
 k-point   7 :   0.1250 0.1250 0.0000  plane waves:   24110
 k-point   8 :   0.2500 0.1250 0.0000  plane waves:   24124
 k-point   9 :   0.3750 0.1250-0.0000  plane waves:   24136
 k-point  10 :   0.5000 0.1250 0.0000  plane waves:   24134
 k-point  11 :   0.0000 0.2500 0.0000  plane waves:   24109
 k-point  12 :   0.1250 0.2500-0.0000  plane waves:   24118
 k-point  13 :   0.2500 0.2500 0.0000  plane waves:   24121
 k-point  14 :   0.3750 0.2500 0.0000  plane waves:   24136
 k-point  15 :   0.5000 0.2500 0.0000  plane waves:   24112
 k-point  16 :   0.0000 0.3750-0.0000  plane waves:   24090
 k-point  17 :   0.1250 0.3750-0.0000  plane waves:   24098
 k-point  18 :   0.2500 0.3750 0.0000  plane waves:   24118
 k-point  19 :   0.3750 0.3750 0.0000  plane waves:   24099
 k-point  20 :   0.5000 0.3750 0.0000  plane waves:   24108
 k-point  21 :   0.0000 0.5000 0.0000  plane waves:   24086
 k-point  22 :   0.1250 0.5000 0.0000  plane waves:   24082
 k-point  23 :   0.2500 0.5000-0.0000  plane waves:   24102
 k-point  24 :   0.3750 0.5000 0.0000  plane waves:   24118
 k-point  25 :   0.5000 0.5000 0.0000  plane waves:   24112
 k-point  26 :   0.0000 0.0000 0.3333  plane waves:   24122
 k-point  27 :   0.1250 0.0000 0.3333  plane waves:   24139
 k-point  28 :   0.2500 0.0000 0.3333  plane waves:   24119
 k-point  29 :   0.3750 0.0000 0.3333  plane waves:   24150
 k-point  30 :   0.5000 0.0000 0.3333  plane waves:   24174
 k-point  31 :   0.0000 0.1250 0.3333  plane waves:   24120
 k-point  32 :   0.1250 0.1250 0.3333  plane waves:   24098
 k-point  33 :   0.2500 0.1250 0.3333  plane waves:   24121
 k-point  34 :   0.3750 0.1250 0.3333  plane waves:   24163
 k-point  35 :   0.5000 0.1250 0.3333  plane waves:   24182
 k-point  36 :   0.0000 0.2500 0.3333  plane waves:   24108
 k-point  37 :   0.1250 0.2500 0.3333  plane waves:   24089
 k-point  38 :   0.2500 0.2500 0.3333  plane waves:   24137
 k-point  39 :   0.3750 0.2500 0.3333  plane waves:   24147
 k-point  40 :   0.5000 0.2500 0.3333  plane waves:   24142
 k-point  41 :   0.0000 0.3750 0.3333  plane waves:   24088
 k-point  42 :   0.1250 0.3750 0.3333  plane waves:   24092
 k-point  43 :   0.2500 0.3750 0.3333  plane waves:   24115
 k-point  44 :   0.3750 0.3750 0.3333  plane waves:   24111
 k-point  45 :   0.5000 0.3750 0.3333  plane waves:   24116
 k-point  46 :   0.0000 0.5000 0.3333  plane waves:   24101
 k-point  47 :   0.1250 0.5000 0.3333  plane waves:   24095
 k-point  48 :   0.2500 0.5000 0.3333  plane waves:   24096
 k-point  49 :   0.3750 0.5000 0.3333  plane waves:   24124
 k-point  50 :   0.5000 0.5000 0.3333  plane waves:   24116
 k-point  51 :   0.0000-0.3750 0.3333  plane waves:   24097
 k-point  52 :   0.1250-0.3750 0.3333  plane waves:   24092
 k-point  53 :   0.2500-0.3750 0.3333  plane waves:   24124
 k-point  54 :   0.3750-0.3750 0.3333  plane waves:   24107
 k-point  55 :   0.5000-0.3750 0.3333  plane waves:   24118
 k-point  56 :   0.0000-0.2500 0.3333  plane waves:   24102
 k-point  57 :   0.1250-0.2500 0.3333  plane waves:   24112
 k-point  58 :   0.2500-0.2500 0.3333  plane waves:   24137
 k-point  59 :   0.3750-0.2500 0.3333  plane waves:   24117
 k-point  60 :   0.5000-0.2500 0.3333  plane waves:   24138
 k-point  61 :   0.0000-0.1250 0.3333  plane waves:   24136
 k-point  62 :   0.1250-0.1250 0.3333  plane waves:   24125
 k-point  63 :   0.2500-0.1250 0.3333  plane waves:   24141
 k-point  64 :   0.3750-0.1250 0.3333  plane waves:   24140
 k-point  65 :   0.5000-0.1250 0.3333  plane waves:   24128

 maximum and minimum number of plane-waves per node :      3054     2966

 maximum number of plane-waves:     24182
 maximum index in each direction: 
   IXMAX=   13   IYMAX=   13   IZMAX=   32
   IXMIN=  -13   IYMIN=  -13   IZMIN=  -33


 real space projection operators:
  total allocation   :      13234.44 KBytes
  max/ min on nodes  :       1732.48       1434.33


 parallel 3D FFT for wavefunctions:
    minimum data exchange during FFTs selected (reduces bandwidth)
 parallel 3D FFT for charge:
    minimum data exchange during FFTs selected (reduces bandwidth)


 total amount of memory used by VASP MPI-rank0   119361. kBytes
=======================================================================

   base      :      30000. kBytes
   nonlr-proj:       5699. kBytes
   fftplans  :       3536. kBytes
   grid      :       6014. kBytes
   one-center:         56. kBytes
   wavefun   :      74056. kBytes
 
     INWAV:  cpu time      0.0000: real time      0.0003
 initial charge density was supplied:
 number of electron     304.0000027 magnetization 
 keeping initial charge density in first step


--------------------------------------------------------------------------------------------------------


 Maximum index for non-local projection operator          579
 Maximum index for augmentation-charges          977 (set IRDMAX)


--------------------------------------------------------------------------------------------------------


 First call to EWALD:  gamma=   0.198
 Maximum number of real-space cells 4x 4x 2
 Maximum number of reciprocal cells 2x 2x 5

    FEWALD:  cpu time      0.0134: real time      0.0281


--------------------------------------- Iteration      1(   1)  ---------------------------------------


    POTLOK:  cpu time      0.1831: real time      0.2439
    SETDIJ:  cpu time      0.3615: real time      0.3737
     EDDAV:  cpu time     20.8881: real time     21.1548
 BZINTS: Fermi energy:   17.969149;  304.000000 electrons
         Band energy: 0.541752E+03;  BLOECHL correction:   -0.042502
       DOS:  cpu time      0.3237: real time      0.3256
    --------------------------------------------
      LOOP:  cpu time     21.7563: real time     22.0980

 eigenvalue-minimisations  : 23960
 total energy-change (2. order) : 0.2352069E+04  (-0.1706548E+05)
 number of electron     304.0000027 magnetization 
 augmentation part      304.0000027 magnetization 

 Free energy of the ion-electron system (eV)
  ---------------------------------------------------
  alpha Z        PSCENC =       594.94278182
  Ewald energy   TEWEN  =    -11596.69328671
  -Hartree energ DENC   =     -7508.70875298
  -exchange      EXHF   =         0.00000000
  -V(xc)+E(xc)   XCENC  =      1053.31833657
  PAW double counting   =     46508.66682878   -46382.30802709
  entropy T*S    EENTRO =         0.00000000
  eigenvalues    EBANDS =       541.75244941
  atomic energy  EATOM  =     19141.09860318
  Solvation  Ediel_sol  =         0.00000000
  ---------------------------------------------------
  free energy    TOTEN  =      2352.06893297 eV

  energy without entropy =     2352.06893297  energy(sigma->0) =     2352.06893297


--------------------------------------------------------------------------------------------------------




--------------------------------------- Iteration      1(   2)  ---------------------------------------


     EDDAV:  cpu time     29.2984: real time     29.6356
 BZINTS: Fermi energy:    2.731940;  304.000000 electrons
         Band energy:-0.191383E+04;  BLOECHL correction:   -0.000000
       DOS:  cpu time      0.3019: real time      0.3036
    --------------------------------------------
      LOOP:  cpu time     29.6002: real time     29.9392

 eigenvalue-minimisations  : 29728
 total energy-change (2. order) :-0.2455582E+04  (-0.2370891E+04)
 number of electron     304.0000027 magnetization 
 augmentation part      304.0000027 magnetization 

 Free energy of the ion-electron system (eV)
  ---------------------------------------------------
  alpha Z        PSCENC =       594.94278182
  Ewald energy   TEWEN  =    -11596.69328671
  -Hartree energ DENC   =     -7508.70875298
  -exchange      EXHF   =         0.00000000
  -V(xc)+E(xc)   XCENC  =      1053.31833657
  PAW double counting   =     46508.66682878   -46382.30802709
  entropy T*S    EENTRO =         0.00000000
  eigenvalues    EBANDS =     -1913.82927976
  atomic energy  EATOM  =     19141.09860318
  Solvation  Ediel_sol  =         0.00000000
  ---------------------------------------------------
  free energy    TOTEN  =      -103.51279620 eV

  energy without entropy =     -103.51279620  energy(sigma->0) =     -103.51279620


--------------------------------------------------------------------------------------------------------




--------------------------------------- Iteration      1(   3)  ---------------------------------------


     EDDAV:  cpu time     31.0758: real time     31.2603
 BZINTS: Fermi energy:    0.827092;  304.000000 electrons
         Band energy:-0.211537E+04;  BLOECHL correction:   -0.000000
       DOS:  cpu time      0.2943: real time      0.2960
    --------------------------------------------
      LOOP:  cpu time     31.3700: real time     31.5563

 eigenvalue-minimisations  : 27216
 total energy-change (2. order) :-0.2015444E+03  (-0.1984972E+03)
 number of electron     304.0000027 magnetization 
 augmentation part      304.0000027 magnetization 

 Free energy of the ion-electron system (eV)
  ---------------------------------------------------
  alpha Z        PSCENC =       594.94278182
  Ewald energy   TEWEN  =    -11596.69328671
  -Hartree energ DENC   =     -7508.70875298
  -exchange      EXHF   =         0.00000000
  -V(xc)+E(xc)   XCENC  =      1053.31833657
  PAW double counting   =     46508.66682878   -46382.30802709
  entropy T*S    EENTRO =         0.00000000
  eigenvalues    EBANDS =     -2115.37365292
  atomic energy  EATOM  =     19141.09860318
  Solvation  Ediel_sol  =         0.00000000
  ---------------------------------------------------
  free energy    TOTEN  =      -305.05716936 eV

  energy without entropy =     -305.05716936  energy(sigma->0) =     -305.05716936


--------------------------------------------------------------------------------------------------------




--------------------------------------- Iteration      1(   4)  ---------------------------------------


     EDDAV:  cpu time     33.6788: real time     33.9230
 BZINTS: Fermi energy:    0.784905;  304.000000 electrons
         Band energy:-0.212102E+04;  BLOECHL correction:   -0.000000
       DOS:  cpu time      0.2939: real time      0.2959
    --------------------------------------------
      LOOP:  cpu time     33.9727: real time     34.2189

 eigenvalue-minimisations  : 30360
 total energy-change (2. order) :-0.5647614E+01  (-0.5617576E+01)
 number of electron     304.0000027 magnetization 
 augmentation part      304.0000027 magnetization 

 Free energy of the ion-electron system (eV)
  ---------------------------------------------------
  alpha Z        PSCENC =       594.94278182
  Ewald energy   TEWEN  =    -11596.69328671
  -Hartree energ DENC   =     -7508.70875298
  -exchange      EXHF   =         0.00000000
  -V(xc)+E(xc)   XCENC  =      1053.31833657
  PAW double counting   =     46508.66682878   -46382.30802709
  entropy T*S    EENTRO =         0.00000000
  eigenvalues    EBANDS =     -2121.02126701
  atomic energy  EATOM  =     19141.09860318
  Solvation  Ediel_sol  =         0.00000000
  ---------------------------------------------------
  free energy    TOTEN  =      -310.70478345 eV

  energy without entropy =     -310.70478345  energy(sigma->0) =     -310.70478345


--------------------------------------------------------------------------------------------------------




--------------------------------------- Iteration      1(   5)  ---------------------------------------


     EDDAV:  cpu time     31.7628: real time     31.9567
 BZINTS: Fermi energy:    0.784326;  304.000000 electrons
         Band energy:-0.212117E+04;  BLOECHL correction:   -0.000000
       DOS:  cpu time      0.2991: real time      0.3012
    --------------------------------------------
      LOOP:  cpu time     32.0619: real time     32.2578

 eigenvalue-minimisations  : 29344
 total energy-change (2. order) :-0.1517062E+00  (-0.1515168E+00)
 number of electron     304.0000027 magnetization 
 augmentation part      304.0000027 magnetization 

 Free energy of the ion-electron system (eV)
  ---------------------------------------------------
  alpha Z        PSCENC =       594.94278182
  Ewald energy   TEWEN  =    -11596.69328671
  -Hartree energ DENC   =     -7508.70875298
  -exchange      EXHF   =         0.00000000
  -V(xc)+E(xc)   XCENC  =      1053.31833657
  PAW double counting   =     46508.66682878   -46382.30802709
  entropy T*S    EENTRO =         0.00000000
  eigenvalues    EBANDS =     -2121.17297317
  atomic energy  EATOM  =     19141.09860318
  Solvation  Ediel_sol  =         0.00000000
  ---------------------------------------------------
  free energy    TOTEN  =      -310.85648961 eV

  energy without entropy =     -310.85648961  energy(sigma->0) =     -310.85648961


--------------------------------------------------------------------------------------------------------




--------------------------------------- Iteration      1(   6)  ---------------------------------------


    EDDIAG:  cpu time      7.9267: real time      7.9848
  RMM-DIIS:  cpu time      9.7929: real time      9.8688
    ORTHCH:  cpu time      0.7794: real time      0.7836
 BZINTS: Fermi energy:    0.784305;  304.000000 electrons
         Band energy:-0.212118E+04;  BLOECHL correction:   -0.000000
       DOS:  cpu time      0.3048: real time      0.3069
    --------------------------------------------
      LOOP:  cpu time     18.8037: real time     18.9440

 eigenvalue-minimisations  : 25239
 total energy-change (2. order) :-0.4161432E-02  (-0.4161432E-02)
 number of electron     304.0000027 magnetization 
 augmentation part      304.0000027 magnetization 

 Free energy of the ion-electron system (eV)
  ---------------------------------------------------
  alpha Z        PSCENC =       594.94278182
  Ewald energy   TEWEN  =    -11596.69328671
  -Hartree energ DENC   =     -7508.70875298
  -exchange      EXHF   =         0.00000000
  -V(xc)+E(xc)   XCENC  =      1053.31833657
  PAW double counting   =     46508.66682878   -46382.30802709
  entropy T*S    EENTRO =         0.00000000
  eigenvalues    EBANDS =     -2121.17713460
  atomic energy  EATOM  =     19141.09860318
  Solvation  Ediel_sol  =         0.00000000
  ---------------------------------------------------
  free energy    TOTEN  =      -310.86065104 eV

  energy without entropy =     -310.86065104  energy(sigma->0) =     -310.86065104


--------------------------------------------------------------------------------------------------------




--------------------------------------- Iteration      1(   7)  ---------------------------------------


    EDDIAG:  cpu time      7.2667: real time      7.3104
  RMM-DIIS:  cpu time     12.6942: real time     12.7933
    ORTHCH:  cpu time      1.5559: real time      1.6018
 BZINTS: Fermi energy:    0.784291;  304.000000 electrons
         Band energy:-0.212118E+04;  BLOECHL correction:   -0.000000
       DOS:  cpu time      0.2972: real time      0.2993
    --------------------------------------------
      LOOP:  cpu time     21.8140: real time     22.0048

 eigenvalue-minimisations  : 34138
 total energy-change (2. order) :-0.1791490E-02  (-0.1786551E-02)
 number of electron     304.0000027 magnetization 
 augmentation part      304.0000027 magnetization 

 Free energy of the ion-electron system (eV)
  ---------------------------------------------------
  alpha Z        PSCENC =       594.94278182
  Ewald energy   TEWEN  =    -11596.69328671
  -Hartree energ DENC   =     -7508.70875298
  -exchange      EXHF   =         0.00000000
  -V(xc)+E(xc)   XCENC  =      1053.31833657
  PAW double counting   =     46508.66682878   -46382.30802709
  entropy T*S    EENTRO =         0.00000000
  eigenvalues    EBANDS =     -2121.17892609
  atomic energy  EATOM  =     19141.09860318
  Solvation  Ediel_sol  =         0.00000000
  ---------------------------------------------------
  free energy    TOTEN  =      -310.86244253 eV

  energy without entropy =     -310.86244253  energy(sigma->0) =     -310.86244253


--------------------------------------------------------------------------------------------------------




--------------------------------------- Iteration      1(   8)  ---------------------------------------


    EDDIAG:  cpu time      7.3842: real time      7.4380
  RMM-DIIS:  cpu time     15.0649: real time     15.1749
    ORTHCH:  cpu time      1.1342: real time      1.1433
 BZINTS: Fermi energy:    0.784288;  304.000000 electrons
         Band energy:-0.212118E+04;  BLOECHL correction:   -0.000000
       DOS:  cpu time      0.2871: real time      0.2894
    --------------------------------------------
      LOOP:  cpu time     23.8703: real time     24.0456

 eigenvalue-minimisations  : 29758
 total energy-change (2. order) :-0.6276270E-04  (-0.7190648E-04)
 number of electron     304.0000027 magnetization 
 augmentation part      304.0000027 magnetization 

 Free energy of the ion-electron system (eV)
  ---------------------------------------------------
  alpha Z        PSCENC =       594.94278182
  Ewald energy   TEWEN  =    -11596.69328671
  -Hartree energ DENC   =     -7508.70875298
  -exchange      EXHF   =         0.00000000
  -V(xc)+E(xc)   XCENC  =      1053.31833657
  PAW double counting   =     46508.66682878   -46382.30802709
  entropy T*S    EENTRO =         0.00000000
  eigenvalues    EBANDS =     -2121.17898885
  atomic energy  EATOM  =     19141.09860318
  Solvation  Ediel_sol  =         0.00000000
  ---------------------------------------------------
  free energy    TOTEN  =      -310.86250529 eV

  energy without entropy =     -310.86250529  energy(sigma->0) =     -310.86250529


--------------------------------------------------------------------------------------------------------




--------------------------------------- Iteration      1(   9)  ---------------------------------------


    EDDIAG:  cpu time      5.9432: real time      6.0172
  RMM-DIIS:  cpu time     13.7609: real time     13.8631
    ORTHCH:  cpu time      0.6499: real time      0.6534
 BZINTS: Fermi energy:    0.784287;  304.000000 electrons
         Band energy:-0.212118E+04;  BLOECHL correction:   -0.000000
       DOS:  cpu time      0.2862: real time      0.2882
    --------------------------------------------
      LOOP:  cpu time     20.6401: real time     20.8219

 eigenvalue-minimisations  : 34351
 total energy-change (2. order) :-0.2443116E-04  (-0.2456241E-04)
 number of electron     304.0000027 magnetization 
 augmentation part      304.0000027 magnetization 

 Free energy of the ion-electron system (eV)
  ---------------------------------------------------
  alpha Z        PSCENC =       594.94278182
  Ewald energy   TEWEN  =    -11596.69328671
  -Hartree energ DENC   =     -7508.70875298
  -exchange      EXHF   =         0.00000000
  -V(xc)+E(xc)   XCENC  =      1053.31833657
  PAW double counting   =     46508.66682878   -46382.30802709
  entropy T*S    EENTRO =         0.00000000
  eigenvalues    EBANDS =     -2121.17901328
  atomic energy  EATOM  =     19141.09860318
  Solvation  Ediel_sol  =         0.00000000
  ---------------------------------------------------
  free energy    TOTEN  =      -310.86252972 eV

  energy without entropy =     -310.86252972  energy(sigma->0) =     -310.86252972


--------------------------------------------------------------------------------------------------------




--------------------------------------- Iteration      1(  10)  ---------------------------------------


    EDDIAG:  cpu time      4.3235: real time      4.4146
  RMM-DIIS:  cpu time      8.9350: real time      9.0004
    ORTHCH:  cpu time      1.0988: real time      1.1069
 BZINTS: Fermi energy:    0.784287;  304.000000 electrons
         Band energy:-0.212118E+04;  BLOECHL correction:   -0.000000
       DOS:  cpu time      0.2948: real time      0.2969
    --------------------------------------------
      LOOP:  cpu time     14.6521: real time     14.8187

 eigenvalue-minimisations  : 23145
 total energy-change (2. order) :-0.6233095E-06  (-0.8808698E-06)
 number of electron     304.0000027 magnetization 
 augmentation part      304.0000027 magnetization 

 Free energy of the ion-electron system (eV)
  ---------------------------------------------------
  alpha Z        PSCENC =       594.94278182
  Ewald energy   TEWEN  =    -11596.69328671
  -Hartree energ DENC   =     -7508.70875298
  -exchange      EXHF   =         0.00000000
  -V(xc)+E(xc)   XCENC  =      1053.31833657
  PAW double counting   =     46508.66682878   -46382.30802709
  entropy T*S    EENTRO =         0.00000000
  eigenvalues    EBANDS =     -2121.17901391
  atomic energy  EATOM  =     19141.09860318
  Solvation  Ediel_sol  =         0.00000000
  ---------------------------------------------------
  free energy    TOTEN  =      -310.86253034 eV

  energy without entropy =     -310.86253034  energy(sigma->0) =     -310.86253034


--------------------------------------------------------------------------------------------------------




 average (electrostatic) potential at core
  the test charge radii are     1.0621  0.9698  0.7215
  (the norm of the test charge is              1.0000)
       1 -54.0798       2 -54.0798       3 -54.0524       4 -54.0524       5 -54.0524
       6 -54.0524       7 -54.0798       8 -54.0798       9 -93.8849      10 -93.8849
      11 -93.9243      12 -93.9243      13 -93.8849      14 -93.8849      15 -93.9243
      16 -93.9243      17 -73.2018      18 -73.2018      19 -73.2853      20 -73.2853
      21 -74.0852      22 -74.0852      23 -74.0730      24 -74.0730      25 -73.1607
      26 -73.1607      27 -73.4679      28 -73.4679      29 -74.2347      30 -74.2347
      31 -74.1318      32 -74.1318      33 -73.7421      34 -73.7421      35 -73.7421
      36 -73.7421      37 -74.2347      38 -74.2347      39 -74.1318      40 -74.1318
      41 -73.4679      42 -73.4679      43 -73.1607      44 -73.1607      45 -74.0852
      46 -74.0852      47 -74.0730      48 -74.0730      49 -73.2853      50 -73.2853
      51 -73.2018      52 -73.2018
 
 
 
 E-fermi :   0.7843     XC(G=0):  -9.1005     alpha+bet : -8.4364

 Fermi energy:         0.7842866819

 k-point     1 :       0.0000    0.0000    0.0000
  band No.  band energies     occupation 
      1     -22.4241      2.00000
      2     -22.3968      2.00000
      3     -22.3527      2.00000
      4     -22.3213      2.00000
      5     -22.2164      2.00000
      6     -22.2108      2.00000
      7     -22.2052      2.00000
      8     -22.1971      2.00000
      9     -18.7163      2.00000
     10     -18.6707      2.00000
     11     -18.6691      2.00000
     12     -18.6306      2.00000
     13     -18.6110      2.00000
     14     -18.6003      2.00000
     15     -18.5751      2.00000
     16     -18.5507      2.00000
     17     -18.2792      2.00000
     18     -18.2588      2.00000
     19     -18.2148      2.00000
     20     -18.2147      2.00000
     21     -18.2016      2.00000
     22     -18.1949      2.00000
     23     -18.1883      2.00000
     24     -18.1802      2.00000
     25     -18.1648      2.00000
     26     -18.1626      2.00000
     27     -18.1505      2.00000
     28     -18.1450      2.00000
     29     -18.0847      2.00000
     30     -18.0826      2.00000
     31     -18.0617      2.00000
     32     -18.0599      2.00000
     33     -17.6186      2.00000
     34     -17.5943      2.00000
     35     -17.5727      2.00000
     36     -17.5510      2.00000
     37     -10.5587      2.00000
     38     -10.5532      2.00000
     39     -10.5107      2.00000
     40     -10.5034      2.00000
     41     -10.4577      2.00000
     42     -10.2027      2.00000
     43     -10.2019      2.00000
     44     -10.0487      2.00000
     45      -8.5039      2.00000
     46      -8.4847      2.00000
     47      -8.4442      2.00000
     48      -8.3894      2.00000
     49      -6.9415      2.00000
     50      -6.8982      2.00000
     51      -6.8859      2.00000
     52      -6.8546      2.00000
     53      -6.4125      2.00000
     54      -6.3335      2.00000
     55      -6.3096      2.00000
     56      -6.2547      2.00000
     57      -6.1707      2.00000
     58      -5.9933      2.00000
     59      -5.7603      2.00000
     60      -5.4935      2.00000
     61      -5.4230      2.00000
     62      -5.3155      2.00000
     63      -5.2826      2.00000
     64      -5.2795      2.00000
     65      -5.1632      2.00000
     66      -5.1037      2.00000
     67      -5.0691      2.00000
     68      -5.0116      2.00000
     69      -5.0097      2.00000
     70      -4.9389      2.00000
     71      -4.8740      2.00000
     72      -4.8033      2.00000
     73      -4.5933      2.00000
     74      -4.5318      2.00000
     75      -4.4421      2.00000
     76      -4.3733      2.00000
     77      -3.7451      2.00000
     78      -3.7224      2.00000
     79      -3.6740      2.00000
     80      -3.5135      2.00000
     81      -3.2723      2.00000
     82      -3.1213      2.00000
     83      -2.9850      2.00000
     84      -2.9178      2.00000
     85      -2.7908      2.00000
     86      -2.7355      2.00000
     87      -2.6490      2.00000
     88      -2.5812      2.00000
     89      -2.5628      2.00000
     90      -2.4931      2.00000
     91      -2.4073      2.00000
     92      -2.3922      2.00000
     93      -2.3635      2.00000
     94      -2.3094      2.00000
     95      -2.2153      2.00000
     96      -2.2015      2.00000
     97      -2.1253      2.00000
     98      -2.0778      2.00000
     99      -2.0587      2.00000
    100      -1.9148      2.00000
    101      -1.8943      2.00000
    102      -1.8897      2.00000
    103      -1.8316      2.00000
    104      -1.8194      2.00000
    105      -1.8140      2.00000
    106      -1.7949      2.00000
    107      -1.7322      2.00000
    108      -1.7172      2.00000
    109      -1.6441      2.00000
    110      -1.6071      2.00000
    111      -1.5386      2.00000
    112      -1.4723      2.00000
    113      -1.4687      2.00000
    114      -1.3771      2.00000
    115      -1.3478      2.00000
    116      -1.2777      2.00000
    117      -1.1666      2.00000
    118      -1.1589      2.00000
    119      -1.1302      2.00000
    120      -1.0476      2.00000
    121      -0.9822      2.00000
    122      -0.9425      2.00000
    123      -0.9331      2.00000
    124      -0.9074      2.00000
    125      -0.7905      2.00000
    126      -0.7817      2.00000
    127      -0.7381      2.00000
    128      -0.7073      2.00000
    129      -0.6485      2.00000
    130      -0.6282      2.00000
    131      -0.5908      2.00000
    132      -0.4692      2.00000
    133      -0.4375      2.00000
    134      -0.2582      2.00000
    135      -0.2265      2.00000
    136      -0.1843      2.00000
    137      -0.0302      2.00000
    138       0.0529      2.00000
    139       0.1233      2.00000
    140       0.1425      2.00000
[...]
   35        1.572   3.493   0.000   5.065
   36        1.572   3.493   0.000   5.065
   37        1.575   3.550   0.000   5.125
   38        1.575   3.550   0.000   5.125
   39        1.577   3.557   0.000   5.134
   40        1.577   3.557   0.000   5.134
   41        1.589   3.555   0.000   5.143
   42        1.589   3.555   0.000   5.143
   43        1.595   3.545   0.000   5.140
   44        1.595   3.545   0.000   5.140
   45        1.574   3.551   0.000   5.124
   46        1.574   3.551   0.000   5.124
   47        1.573   3.566   0.000   5.139
   48        1.573   3.566   0.000   5.139
   49        1.590   3.550   0.000   5.140
   50        1.590   3.550   0.000   5.140
   51        1.587   3.567   0.000   5.155
   52        1.587   3.567   0.000   5.155
--------------------------------------------------
tot         77.831 153.791   1.215 232.837
 
    CHARGE:  cpu time      1.4269: real time      1.9736
    FORLOC:  cpu time      0.0256: real time      0.0258
    FORNL :  cpu time      8.7798: real time      8.8399
    STRESS:  cpu time     21.3977: real time     21.5496
    FORCOR:  cpu time      0.0407: real time      0.0409
    FORHAR:  cpu time      0.0150: real time      0.0151
    OFIELD:  cpu time      0.0001: real time      0.0001

 ---------------------------------------------------------------------------------------------

         DFTD3 V3.0 Rev 1        
 IVDW         = 12
 DF pbe       
 parameters
 VDW_S6       =    1.0000
 VDW_S8       =    0.7875
 VDW_A1       =    0.4289
 VDW_A2       =    4.4407
 k1-k3        =   16.0000    1.3333   -4.0000
 VDW_RADIUS   =   50.2022 A
 VDW_CNRADIUS =   21.1671 A
 Edisp (eV)   -7.35490

 E6    (eV) :    -4.9460
 E8    (eV) :    -2.4089
 % E8        : 32.75
    FORVDW:  cpu time      0.2929: real time      0.2949

  FORCE on cell =-STRESS in cart. coord.  units (eV):
  Direction    XX          YY          ZZ          XY          YZ          ZX
  --------------------------------------------------------------------------------------
  Alpha Z   594.94278   594.94278   594.94278
  Ewald   -3324.84750 -3976.25656 -4295.66639    -0.00000  -523.11870    -0.00000
  Hartree  2832.61968  2284.15866  2391.95867     0.00000  -350.16766    -0.00000
  E(xc)   -1414.17673 -1415.00917 -1418.83080     0.00000    -1.28514    -0.00000
  Local   -4531.98946 -3323.53149 -3159.39772     0.00000   863.97854     0.00000
  n-local   -73.14973   -69.80200   -76.79138     0.00534    -3.36175     0.00288
  augment   101.75363   101.07546    98.98436     0.00000    -1.04922     0.00000
  Kinetic  5821.92050  5811.91136  5872.58320    -0.01832    15.05882    -0.00012
  Fock        0.00000     0.00000     0.00000     0.00000     0.00000     0.00000
  vdW        -7.08576    -7.45369    -7.82732     0.00000    -0.07816    -0.00000
  -------------------------------------------------------------------------------------
  Total      -0.01258     0.03535    -0.04460     0.00000    -0.02328    -0.00000
  in kB      -0.02790     0.07836    -0.09886     0.00000    -0.05161    -0.00000
  external pressure =       -0.02 kB  Pullay stress =        0.00 kB


 VOLUME and BASIS-vectors are now :
 -----------------------------------------------------------------------------
  energy-cutoff  :      600.00
  volume of cell :      722.80
      direct lattice vectors                 reciprocal lattice vectors
     6.573821663  0.000000000  0.000000000     0.152118517 -0.000000000 -0.000000000
     0.000000000  6.685178445  0.488758745    -0.000000000  0.149513547  0.000972384
     0.000000000 -0.106914310 16.439116269    -0.000000000 -0.004445254  0.060801610

  length of vectors
     6.573821663  6.703021405 16.439463932     0.152118517  0.149516709  0.060963892


 FORCES acting on ions
    electron-ion (+dipol)            ewald-force                    non-local-force                 convergence-correction
 -----------------------------------------------------------------------------------------------
   -.603E+01 -.995E+02 -.139E+03   0.576E+01 0.105E+03 0.146E+03   0.232E+00 -.538E+01 -.745E+01   -.994E-03 0.605E-03 -.586E-04
   0.603E+01 -.995E+02 -.139E+03   -.576E+01 0.105E+03 0.146E+03   -.232E+00 -.538E+01 -.745E+01   0.994E-03 0.605E-03 -.586E-04
   0.685E+02 -.345E+02 0.135E+03   -.732E+02 0.356E+02 -.143E+03   0.470E+01 -.106E+01 0.763E+01   -.757E-03 -.209E-02 -.180E-03
   -.685E+02 -.345E+02 0.135E+03   0.732E+02 0.356E+02 -.143E+03   -.470E+01 -.106E+01 0.763E+01   0.757E-03 -.209E-02 -.180E-03
   0.685E+02 0.345E+02 -.135E+03   -.732E+02 -.356E+02 0.143E+03   0.470E+01 0.106E+01 -.763E+01   -.757E-03 0.209E-02 0.180E-03
   -.685E+02 0.345E+02 -.135E+03   0.732E+02 -.356E+02 0.143E+03   -.470E+01 0.106E+01 -.763E+01   0.757E-03 0.209E-02 0.180E-03
   -.603E+01 0.995E+02 0.139E+03   0.576E+01 -.105E+03 -.146E+03   0.232E+00 0.538E+01 0.745E+01   -.994E-03 -.605E-03 0.586E-04
   0.603E+01 0.995E+02 0.139E+03   -.576E+01 -.105E+03 -.146E+03   -.232E+00 0.538E+01 0.745E+01   0.994E-03 -.605E-03 0.586E-04
   -.201E+02 -.511E+02 0.146E+02   0.269E+02 0.536E+02 -.182E+02   -.686E+01 -.248E+01 0.362E+01   0.139E-02 -.131E-03 -.116E-02
   0.201E+02 -.511E+02 0.146E+02   -.269E+02 0.536E+02 -.182E+02   0.686E+01 -.248E+01 0.362E+01   -.139E-02 -.131E-03 -.116E-02
   0.195E+01 0.501E+02 0.192E+02   0.305E+01 -.572E+02 -.200E+02   -.500E+01 0.708E+01 0.725E+00   -.116E-02 0.166E-02 0.183E-02
   -.195E+01 0.501E+02 0.192E+02   -.305E+01 -.572E+02 -.200E+02   0.500E+01 0.708E+01 0.725E+00   0.116E-02 0.166E-02 0.183E-02
   -.201E+02 0.511E+02 -.146E+02   0.269E+02 -.536E+02 0.182E+02   -.686E+01 0.248E+01 -.362E+01   0.139E-02 0.131E-03 0.116E-02
   0.201E+02 0.511E+02 -.146E+02   -.269E+02 -.536E+02 0.182E+02   0.686E+01 0.248E+01 -.362E+01   -.139E-02 0.131E-03 0.116E-02
   0.195E+01 -.501E+02 -.192E+02   0.305E+01 0.572E+02 0.200E+02   -.500E+01 -.708E+01 -.725E+00   -.116E-02 -.166E-02 -.183E-02
   -.195E+01 -.501E+02 -.192E+02   -.305E+01 0.572E+02 0.200E+02   0.500E+01 -.708E+01 -.725E+00   0.116E-02 -.166E-02 -.183E-02
   -.672E+02 -.214E+03 0.660E+02   0.808E+02 0.257E+03 -.842E+02   -.136E+02 -.436E+02 0.182E+02   -.234E-02 -.495E-02 0.634E-02
   0.672E+02 -.214E+03 0.660E+02   -.808E+02 0.257E+03 -.842E+02   0.136E+02 -.436E+02 0.182E+02   0.234E-02 -.495E-02 0.634E-02
   -.151E+03 0.143E+03 0.188E+02   0.184E+03 -.180E+03 -.179E+02   -.326E+02 0.366E+02 -.883E+00   -.673E-04 -.933E-03 -.652E-02
   0.151E+03 0.143E+03 0.188E+02   -.184E+03 -.180E+03 -.179E+02   0.326E+02 0.366E+02 -.883E+00   0.673E-04 -.933E-03 -.652E-02
   -.245E+02 -.106E+03 -.168E+03   0.330E+02 0.113E+03 0.201E+03   -.855E+01 -.636E+01 -.337E+02   0.227E-02 0.308E-02 0.331E-02
   0.245E+02 -.106E+03 -.168E+03   -.330E+02 0.113E+03 0.201E+03   0.855E+01 -.636E+01 -.337E+02   -.227E-02 0.308E-02 0.331E-02
   0.944E+02 0.382E+02 0.171E+03   -.107E+03 -.574E+02 -.198E+03   0.129E+02 0.192E+02 0.268E+02   0.519E-02 -.364E-02 -.468E-02
   -.944E+02 0.382E+02 0.171E+03   0.107E+03 -.574E+02 -.198E+03   -.129E+02 0.192E+02 0.268E+02   -.519E-02 -.364E-02 -.468E-02
   -.241E+03 0.123E+03 0.101E+03   0.290E+03 -.136E+03 -.117E+03   -.488E+02 0.129E+02 0.159E+02   0.117E-02 0.168E-02 0.371E-02
   0.241E+03 0.123E+03 0.101E+03   -.290E+03 -.136E+03 -.117E+03   0.488E+02 0.129E+02 0.159E+02   -.117E-02 0.168E-02 0.371E-02
   0.116E+03 0.206E+03 -.586E+02   -.140E+03 -.242E+03 0.782E+02   0.242E+02 0.366E+02 -.196E+02   -.256E-02 0.326E-02 0.848E-02
   -.116E+03 0.206E+03 -.586E+02   0.140E+03 -.242E+03 0.782E+02   -.242E+02 0.366E+02 -.196E+02   0.256E-02 0.326E-02 0.848E-02
   -.831E+01 -.898E+02 -.175E+03   0.846E+01 0.974E+02 0.211E+03   -.145E+00 -.762E+01 -.351E+02   -.207E-02 -.428E-02 -.654E-02
   0.831E+01 -.898E+02 -.175E+03   -.846E+01 0.974E+02 0.211E+03   0.145E+00 -.762E+01 -.351E+02   0.207E-02 -.428E-02 -.654E-02
   0.132E+03 0.409E+02 0.148E+03   -.158E+03 -.470E+02 -.174E+03   0.260E+02 0.605E+01 0.266E+02   -.897E-03 0.148E-02 0.270E-03
   -.132E+03 0.409E+02 0.148E+03   0.158E+03 -.470E+02 -.174E+03   -.260E+02 0.605E+01 0.266E+02   0.897E-03 0.148E-02 0.270E-03
   -.877E+02 0.132E+03 -.102E+02   0.106E+03 -.154E+03 0.960E+01   -.186E+02 0.221E+02 0.584E+00   -.144E-02 0.141E-02 -.850E-02
   0.877E+02 0.132E+03 -.102E+02   -.106E+03 -.154E+03 0.960E+01   0.186E+02 0.221E+02 0.584E+00   0.144E-02 0.141E-02 -.850E-02
   -.877E+02 -.132E+03 0.102E+02   0.106E+03 0.154E+03 -.960E+01   -.186E+02 -.221E+02 -.584E+00   -.144E-02 -.141E-02 0.850E-02
   0.877E+02 -.132E+03 0.102E+02   -.106E+03 0.154E+03 -.960E+01   0.186E+02 -.221E+02 -.584E+00   0.144E-02 -.141E-02 0.850E-02
   0.831E+01 0.898E+02 0.175E+03   -.846E+01 -.974E+02 -.211E+03   0.145E+00 0.762E+01 0.351E+02   0.207E-02 0.428E-02 0.654E-02
   -.831E+01 0.898E+02 0.175E+03   0.846E+01 -.974E+02 -.211E+03   -.145E+00 0.762E+01 0.351E+02   -.207E-02 0.428E-02 0.654E-02
   -.132E+03 -.409E+02 -.148E+03   0.158E+03 0.470E+02 0.174E+03   -.260E+02 -.605E+01 -.266E+02   0.897E-03 -.148E-02 -.270E-03
   0.132E+03 -.409E+02 -.148E+03   -.158E+03 0.470E+02 0.174E+03   0.260E+02 -.605E+01 -.266E+02   -.897E-03 -.148E-02 -.270E-03
   -.116E+03 -.206E+03 0.586E+02   0.140E+03 0.242E+03 -.782E+02   -.242E+02 -.366E+02 0.196E+02   0.256E-02 -.326E-02 -.848E-02
   0.116E+03 -.206E+03 0.586E+02   -.140E+03 0.242E+03 -.782E+02   0.242E+02 -.366E+02 0.196E+02   -.256E-02 -.326E-02 -.848E-02
   0.241E+03 -.123E+03 -.101E+03   -.290E+03 0.136E+03 0.117E+03   0.488E+02 -.129E+02 -.159E+02   -.117E-02 -.168E-02 -.371E-02
   -.241E+03 -.123E+03 -.101E+03   0.290E+03 0.136E+03 0.117E+03   -.488E+02 -.129E+02 -.159E+02   0.117E-02 -.168E-02 -.371E-02
   0.245E+02 0.106E+03 0.168E+03   -.330E+02 -.113E+03 -.201E+03   0.855E+01 0.636E+01 0.337E+02   -.227E-02 -.308E-02 -.331E-02
   -.245E+02 0.106E+03 0.168E+03   0.330E+02 -.113E+03 -.201E+03   -.855E+01 0.636E+01 0.337E+02   0.227E-02 -.308E-02 -.331E-02
   -.944E+02 -.382E+02 -.171E+03   0.107E+03 0.574E+02 0.198E+03   -.129E+02 -.192E+02 -.268E+02   -.519E-02 0.364E-02 0.468E-02
   0.944E+02 -.382E+02 -.171E+03   -.107E+03 0.574E+02 0.198E+03   0.129E+02 -.192E+02 -.268E+02   0.519E-02 0.364E-02 0.468E-02
   0.151E+03 -.143E+03 -.188E+02   -.184E+03 0.180E+03 0.179E+02   0.326E+02 -.366E+02 0.883E+00   0.673E-04 0.933E-03 0.652E-02
   -.151E+03 -.143E+03 -.188E+02   0.184E+03 0.180E+03 0.179E+02   -.326E+02 -.366E+02 0.883E+00   -.673E-04 0.933E-03 0.652E-02
   0.672E+02 0.214E+03 -.660E+02   -.808E+02 -.257E+03 0.842E+02   0.136E+02 0.436E+02 -.182E+02   0.234E-02 0.495E-02 -.634E-02
   -.672E+02 0.214E+03 -.660E+02   0.808E+02 -.257E+03 0.842E+02   -.136E+02 0.436E+02 -.182E+02   -.234E-02 0.495E-02 -.634E-02
 -----------------------------------------------------------------------------------------------
   -.859E-11 0.105E-09 -.683E-10   -.114E-12 0.455E-12 -.441E-12   -.888E-14 0.284E-13 -.142E-13   0.100E-10 -.364E-10 0.788E-10
 
 
 POSITION                                       TOTAL-FORCE (eV/Angst)
 -----------------------------------------------------------------------------------
      4.92015      5.34529      8.13558        -0.001072      0.000758     -0.000155
      4.94059      5.29183     16.35514         0.001072      0.000758     -0.000155
      3.92986      4.56996      5.15372         0.000379     -0.000172     -0.000009
      5.93088      4.51650     13.37328        -0.000379     -0.000172     -0.000009
      0.64295      2.06176      3.55460         0.000379      0.000172      0.000009
      2.64397      2.00830     11.77416        -0.000379      0.000172      0.000009
      1.63323      1.28643      0.57274        -0.001072     -0.000758      0.000155
      1.65368      1.23297      8.79230         0.001072     -0.000758      0.000155
      0.48071      5.19375      5.72678        -0.002307     -0.004177      0.000579
      2.80620      5.14029     13.94634         0.002307     -0.004177      0.000579
      4.79505      2.31256      7.21648         0.003311      0.003180     -0.005229
      5.06568      2.25911     15.43604        -0.003311      0.003180     -0.005229
      3.76762      1.43797      2.98154        -0.002307      0.004177     -0.000579
      6.09312      1.38451     11.20109         0.002307      0.004177     -0.000579
      1.50814      4.31916      1.49184         0.003311     -0.003180      0.005229
      1.77877      4.26570      9.71139        -0.003311     -0.003180      0.005229
      0.82803      6.48147      5.17432         0.002169     -0.004860     -0.000872
      2.45888      6.42801     13.39388        -0.002169     -0.004860     -0.000872
      1.54460      4.19769      5.68425        -0.003785     -0.003444      0.002850
      1.74231      4.14423     13.90381         0.003785     -0.003444      0.002850
      0.05383      5.37439      7.20158        -0.002111      0.000141     -0.000134
      3.23308      5.32093     15.42114         0.002111      0.000141     -0.000134
      5.86793      4.56551      4.97950        -0.000886      0.000720     -0.000804
      3.99280      4.51205     13.19906         0.000886      0.000720     -0.000804
      6.13191      1.95354      6.81617        -0.003026      0.001095     -0.002411
      3.72883      1.90008     15.03573         0.003026      0.001095     -0.002411
      4.00946      1.23417      7.80711        -0.000184      0.003981     -0.003281
      5.85128      1.18072     16.02667         0.000184      0.003981     -0.003281
      4.82697      3.44970      8.27346         0.002741      0.001996     -0.000794
      5.03377      3.39624     16.49301        -0.002741      0.001996     -0.000794
      3.97875      2.84219      6.02938         0.001896      0.001929     -0.001016
      5.88198      2.78874     14.24894        -0.001896      0.001929     -0.001016
      2.63034      1.03333     10.27581         0.001614      0.000649      0.000027
      0.65657      1.08679      2.05626        -0.001614      0.000649      0.000027
      5.91725      5.49147     14.87162         0.001614     -0.000649     -0.000027
      3.94348      5.54493      6.65206        -0.001614     -0.000649     -0.000027
      1.74686      3.12857      8.65442        -0.002741     -0.001996      0.000794
      1.54006      3.18202      0.43486         0.002741     -0.001996      0.000794
      2.59507      3.73607     10.89849        -0.001896     -0.001929      0.001016
      0.69184      3.78953      2.67893         0.001896     -0.001929      0.001016
      2.56437      5.34409      9.12077         0.000184     -0.003981      0.003281
      0.72255      5.39755      0.90121        -0.000184     -0.003981      0.003281
      0.44192      4.62473     10.11170         0.003026     -0.001095      0.002411
      2.84499      4.67818      1.89215        -0.003026     -0.001095      0.002411
      6.51999      1.20388      9.72630         0.002111     -0.000141      0.000134
      3.34075      1.25733      1.50674        -0.002111     -0.000141      0.000134
      0.70589      2.01275     11.94837         0.000886     -0.000720      0.000804
      2.58102      2.06621      3.72882        -0.000886     -0.000720      0.000804
      5.02922      2.38057     11.24363         0.003785      0.003444     -0.002850
      4.83151      2.43403      3.02407        -0.003785      0.003444     -0.002850
      5.74579      0.09680     11.75355        -0.002169      0.004860      0.000872
      4.11494      0.15025      3.53400         0.002169      0.004860      0.000872
 -----------------------------------------------------------------------------------
    total drift:                                0.000000      0.000000      0.000000


--------------------------------------------------------------------------------------------------------



  FREE ENERGIE OF THE ION-ELECTRON SYSTEM (eV)
  ---------------------------------------------------
  free  energy   TOTEN  =      -318.21743015 eV

  energy  without entropy=     -318.21743015  energy(sigma->0) =     -318.21743015
 


--------------------------------------------------------------------------------------------------------


    POTLOK:  cpu time      0.1715: real time      0.1730


--------------------------------------------------------------------------------------------------------


     LOOP+:  cpu time    281.0213: real time    283.9553
    4ORBIT:  cpu time      0.0000: real time      0.0000



 total charge

# of ion       s       p       d       tot
------------------------------------------
    1        1.378   1.012   0.153   2.544
    2        1.378   1.012   0.153   2.544
    3        1.390   0.985   0.151   2.525
    4        1.390   0.985   0.151   2.525
    5        1.390   0.985   0.151   2.525
    6        1.390   0.985   0.151   2.525
    7        1.378   1.012   0.153   2.544
    8        1.378   1.012   0.153   2.544
    9        1.228   2.256   0.000   3.485
   10        1.228   2.256   0.000   3.485
   11        1.231   2.261   0.000   3.492
   12        1.231   2.261   0.000   3.492
   13        1.228   2.256   0.000   3.485
   14        1.228   2.256   0.000   3.485
   15        1.231   2.261   0.000   3.492
   16        1.231   2.261   0.000   3.492
   17        1.587   3.567   0.000   5.155
   18        1.587   3.567   0.000   5.155
   19        1.590   3.550   0.000   5.140
   20        1.590   3.550   0.000   5.140
   21        1.574   3.551   0.000   5.124
   22        1.574   3.551   0.000   5.124
   23        1.573   3.566   0.000   5.139
   24        1.573   3.566   0.000   5.139
   25        1.595   3.545   0.000   5.140
   26        1.595   3.545   0.000   5.140
   27        1.589   3.555   0.000   5.143
   28        1.589   3.555   0.000   5.143
   29        1.575   3.550   0.000   5.125
   30        1.575   3.550   0.000   5.125
   31        1.577   3.557   0.000   5.134
   32        1.577   3.557   0.000   5.134
   33        1.572   3.493   0.000   5.065
   34        1.572   3.493   0.000   5.065
   35        1.572   3.493   0.000   5.065
   36        1.572   3.493   0.000   5.065
   37        1.575   3.550   0.000   5.125
   38        1.575   3.550   0.000   5.125
   39        1.577   3.557   0.000   5.134
   40        1.577   3.557   0.000   5.134
   41        1.589   3.555   0.000   5.143
   42        1.589   3.555   0.000   5.143
   43        1.595   3.545   0.000   5.140
   44        1.595   3.545   0.000   5.140
   45        1.574   3.551   0.000   5.124
   46        1.574   3.551   0.000   5.124
   47        1.573   3.566   0.000   5.139
   48        1.573   3.566   0.000   5.139
   49        1.590   3.550   0.000   5.140
   50        1.590   3.550   0.000   5.140
   51        1.587   3.567   0.000   5.155
   52        1.587   3.567   0.000   5.155
--------------------------------------------------
tot         77.831 153.791   1.215 232.837
 
 BZINTS: Fermi energy:    0.784287;  304.000000 electrons
         Band energy:-0.212118E+04;  BLOECHL correction:   -0.000000

 total amount of memory used by VASP MPI-rank0   119361. kBytes
=======================================================================

   base      :      30000. kBytes
   nonlr-proj:       5699. kBytes
   fftplans  :       3536. kBytes
   grid      :       6014. kBytes
   one-center:         56. kBytes
   wavefun   :      74056. kBytes
 
  
  
 General timing and accounting informations for this job:
 ========================================================
  
                  Total CPU time used (sec):     1192.297
                            User time (sec):     1186.657
                          System time (sec):        5.640
                         Elapsed time (sec):     1213.537
  
                   Maximum memory used (kb):      393828.
                   Average memory used (kb):          N/A
  
                          Minor page faults:       648323
                          Major page faults:          320
                 Voluntary context switches:        12339
