unknown system                          
           1
     6.573822    0.000000    0.000000
     0.000000    6.685178    0.488759
     0.000000   -0.106914   16.439116
   As   S    O 
     8     8    36
Direct configuration=     1
   0.74844524  0.80710430  0.47089503
   0.75155476  0.80710430  0.97089503
   0.59780390  0.68828241  0.29303970
   0.90219610  0.68828241  0.79303970
   0.09780390  0.31171759  0.20696030
   0.40219610  0.31171759  0.70696030
   0.24844524  0.19289570  0.02910497
   0.25155476  0.19289570  0.52910497
   0.07312430  0.78210487  0.32510996
   0.42687570  0.78210487  0.82510996
   0.72941651  0.35277683  0.42849376
   0.77058349  0.35277683  0.92849376
   0.57312430  0.21789513  0.17489004
   0.92687570  0.21789513  0.67489004
   0.22941651  0.64722317  0.07150624
   0.27058349  0.64722317  0.57150624
   0.12595861  0.97409872  0.28579530
   0.37404139  0.97409872  0.78579530
   0.23496219  0.63313871  0.32695167
   0.26503781  0.63313871  0.82695167
   0.00818919  0.81054630  0.41397714
   0.49181081  0.81054630  0.91397714
   0.89262146  0.68744767  0.28246681
   0.60737854  0.68744767  0.78246681
   0.93277642  0.29870820  0.40575019
   0.56722358  0.29870820  0.90575019
   0.60991254  0.19211738  0.46919848
   0.89008746  0.19211738  0.96919848
   0.73427090  0.52382151  0.48770464
   0.76572910  0.52382151  0.98770464
   0.60524188  0.43080934  0.35396196
   0.89475812  0.43080934  0.85396196
   0.40012357  0.16448920  0.62019267
   0.09987643  0.16448920  0.12019267
   0.90012357  0.83551080  0.87980733
   0.59987643  0.83551080  0.37980733
   0.26572910  0.47617849  0.51229536
   0.23427090  0.47617849  0.01229536
   0.39475812  0.56919066  0.64603804
   0.10524188  0.56919066  0.14603804
   0.39008746  0.80788262  0.53080152
   0.10991254  0.80788262  0.03080152
   0.06722358  0.70129180  0.59424981
   0.43277642  0.70129180  0.09424981
   0.99181081  0.18945370  0.58602286
   0.50818919  0.18945370  0.08602286
   0.10737854  0.31255233  0.71753319
   0.39262146  0.31255233  0.21753319
   0.76503781  0.36686129  0.67304833
   0.73496219  0.36686129  0.17304833
   0.87404139  0.02590128  0.71420470
   0.62595861  0.02590128  0.21420470
